 Entering Gaussian System, Link 0=g09.exe
 Input=Co2_3.gjf
 Output=Co2_3.out
 Initial command:
 E:\G09W\l1.exe .\gxx.inp Co2_3.out /scrdir=.\
 Entering Link 1 = E:\G09W\l1.exe PID=      8572.
  
 Copyright (c) 1988,1990,1992,1993,1995,1998,2003,2009, Gaussian, Inc.
                  All Rights Reserved.
  
 This is part of the Gaussian(R) 09 program.  It is based on
 the Gaussian(R) 03 system (copyright 2003, Gaussian, Inc.),
 the Gaussian(R) 98 system (copyright 1998, Gaussian, Inc.),
 the Gaussian(R) 94 system (copyright 1995, Gaussian, Inc.),
 the Gaussian 92(TM) system (copyright 1992, Gaussian, Inc.),
 the Gaussian 90(TM) system (copyright 1990, Gaussian, Inc.),
 the Gaussian 88(TM) system (copyright 1988, Gaussian, Inc.),
 the Gaussian 86(TM) system (copyright 1986, Carnegie Mellon
 University), and the Gaussian 82(TM) system (copyright 1983,
 Carnegie Mellon University). Gaussian is a federally registered
 trademark of Gaussian, Inc.
  
 This software contains proprietary and confidential information,
 including trade secrets, belonging to Gaussian, Inc.
  
 This software is provided under written license and may be
 used, copied, transmitted, or stored only in accord with that
 written license.
  
 The following legend is applicable only to US Government
 contracts under FAR:
  
                    RESTRICTED RIGHTS LEGEND
  
 Use, reproduction and disclosure by the US Government is
 subject to restrictions as set forth in subparagraphs (a)
 and (c) of the Commercial Computer Software - Restricted
 Rights clause in FAR 52.227-19.
  
 Gaussian, Inc.
 340 Quinnipiac St., Bldg. 40, Wallingford CT 06492
  
  
 ---------------------------------------------------------------
 Warning -- This program may not be used in any manner that
 competes with the business of Gaussian, Inc. or will provide
 assistance to any competitor of Gaussian, Inc.  The licensee
 of this program is prohibited from giving any competitor of
 Gaussian, Inc. access to this program.  By using this program,
 the user acknowledges that Gaussian, Inc. is engaged in the
 business of creating and licensing software in the field of
 computational chemistry and represents and warrants to the
 licensee that it is not a competitor of Gaussian, Inc. and that
 it will not use this program in any manner prohibited above.
 ---------------------------------------------------------------
  

 Cite this work as:
 Gaussian 09, Revision A.02,
 M. J. Frisch, G. W. Trucks, H. B. Schlegel, G. E. Scuseria, 
 M. A. Robb, J. R. Cheeseman, G. Scalmani, V. Barone, B. Mennucci, 
 G. A. Petersson, H. Nakatsuji, M. Caricato, X. Li, H. P. Hratchian, 
 A. F. Izmaylov, J. Bloino, G. Zheng, J. L. Sonnenberg, M. Hada, 
 M. Ehara, K. Toyota, R. Fukuda, J. Hasegawa, M. Ishida, T. Nakajima, 
 Y. Honda, O. Kitao, H. Nakai, T. Vreven, J. A. Montgomery, Jr., 
 J. E. Peralta, F. Ogliaro, M. Bearpark, J. J. Heyd, E. Brothers, 
 K. N. Kudin, V. N. Staroverov, R. Kobayashi, J. Normand, 
 K. Raghavachari, A. Rendell, J. C. Burant, S. S. Iyengar, J. Tomasi, 
 M. Cossi, N. Rega, J. M. Millam, M. Klene, J. E. Knox, J. B. Cross, 
 V. Bakken, C. Adamo, J. Jaramillo, R. Gomperts, R. E. Stratmann, 
 O. Yazyev, A. J. Austin, R. Cammi, C. Pomelli, J. W. Ochterski, 
 R. L. Martin, K. Morokuma, V. G. Zakrzewski, G. A. Voth, 
 P. Salvador, J. J. Dannenberg, S. Dapprich, A. D. Daniels, 
 O. Farkas, J. B. Foresman, J. V. Ortiz, J. Cioslowski, 
 and D. J. Fox, Gaussian, Inc., Wallingford CT, 2009.
 
 ******************************************
 Gaussian 09:  IA32W-G09RevA.02 11-Jun-2009
                06-Dec-2020 
 ******************************************
 %nprocshared=4
 Will use up to    4 processors via shared memory.
 %mem=1GB
 ----------------------------------------------------------------------
 # opt=(tight,maxcycles=1500) freq b3lyp/6-311++g nosymm pop=(full,nbo)
  polar int=ultrafine scf=xqc
 ----------------------------------------------------------------------
 1/6=1500,7=10,14=-1,18=20,19=15,26=3,38=1/1,3;
 2/9=110,12=2,15=1,17=6,18=5,40=1/2;
 3/5=4,6=6,7=1010,11=2,16=1,25=1,30=1,71=1,74=-5,75=-5/1,2,3;
 4//1;
 5/5=2,8=3,13=1,38=5,98=1/2,8;
 6/7=3,28=1/1,7;
 7/30=1/1,2,3,16;
 1/6=1500,7=10,14=-1,18=20,19=15/3(2);
 2/9=110,15=1/2;
 99//99;
 2/9=110,15=1/2;
 3/5=4,6=6,7=1010,11=2,16=1,25=1,30=1,71=1,74=-5,75=-5/1,2,3;
 4/5=5,16=3/1;
 5/5=2,8=3,13=1,38=5,98=1/2,8;
 7/30=1/1,2,3,16;
 1/6=1500,7=10,14=-1,18=20,19=15/3(-5);
 2/9=110,15=1/2;
 6/7=3,19=2,28=1/1,7;
 99/9=1/99;
 -----
 Title
 -----
 Symbolic Z-matrix:
 Charge =  0 Multiplicity = 3
 Co
 Co                   1    B1
       Variables:
  B1                    2.                       
 

 GradGradGradGradGradGradGradGradGradGradGradGradGradGradGradGradGradGrad
 Berny optimization.
 Initialization pass.
                           ----------------------------
                           !    Initial Parameters    !
                           ! (Angstroms and Degrees)  !
 --------------------------                            --------------------------
 ! Name  Definition              Value          Derivative Info.                !
 --------------------------------------------------------------------------------
 ! R1    R(1,2)                  2.0            estimate D2E/DX2                !
 --------------------------------------------------------------------------------
 Trust Radius=3.00D-01 FncErr=1.00D-07 GrdErr=1.00D-06
 Number of steps in this run= 100 maximum allowed number of steps= 100.
 GradGradGradGradGradGradGradGradGradGradGradGradGradGradGradGradGradGrad

                          Input orientation:                          
 ---------------------------------------------------------------------
 Center     Atomic      Atomic             Coordinates (Angstroms)
 Number     Number       Type             X           Y           Z
 ---------------------------------------------------------------------
      1         27           0        0.000000    0.000000    0.000000
      2         27           0        0.000000    0.000000    2.000000
 ---------------------------------------------------------------------
 Symmetry turned off by external request.
 Stoichiometry    Co2(3)
 Framework group  D*H[C*(Co.Co)]
 Deg. of freedom     1
 Full point group                 D*H     NOp   8
 Rotational constants (GHZ):      0.0000000      4.2877277      4.2877277
 Standard basis: 6-311++G (5D, 7F)
 Integral buffers will be    262144 words long.
 Raffenetti 2 integral format.
 Two-electron integral symmetry is turned off.
   102 basis functions,   168 primitive gaussians,   110 cartesian basis functions
    28 alpha electrons       26 beta electrons
       nuclear repulsion energy       192.8850925311 Hartrees.
 NAtoms=    2 NActive=    2 NUniq=    2 SFac= 7.50D-01 NAtFMM=   80 NAOKFM=F Big=F
 One-electron integrals computed using PRISM.
 NBasis=   102 RedAO= T  NBF=   102
 NBsUse=   102 1.00D-06 NBFU=   102
 Harris functional with IExCor=  402 diagonalized for initial guess.
 ExpMin= 1.33D-02 ExpMax= 2.71D+05 ExpMxC= 9.06D+03 IAcc=3 IRadAn=         5 AccDes= 0.00D+00
 HarFok:  IExCor=  402 AccDes= 0.00D+00 IRadAn=         5 IDoV= 1
 ScaDFX=  1.000000  1.000000  1.000000  1.000000
 FoFCou: FMM=F IPFlag=           0 FMFlag=      100000 FMFlg1=           0
         NFxFlg=           0 DoJE=T BraDBF=F KetDBF=T FulRan=T
         Omega=  0.000000  0.000000  1.000000  0.000000  0.000000 ICntrl=     500 IOpCl=  0
         NMat0=    1 NMatS0=    1 NMatT0=    0 NMatD0=    1 NMtDS0=    0 NMtDT0=    0
         I1Cent=           4 NGrid=           0.
 Symmetry not used in FoFCou.
 Initial guess <Sx>= 0.0000 <Sy>= 0.0000 <Sz>= 1.0000 <S**2>= 2.0000 S= 1.0000
 Requested convergence on RMS density matrix=1.00D-08 within  64 cycles.
 Requested convergence on MAX density matrix=1.00D-06.
 Requested convergence on             energy=1.00D-06.
 No special actions if energy rises.
 Keep R1 and R2 ints in memory in canonical form, NReq=38309558.
 SCF Done:  E(UB3LYP) =  -2765.33424180     A.U. after   13 cycles
             Convg  =    0.3162D-08             -V/T =  2.0009
 <Sx>= 0.0000 <Sy>= 0.0000 <Sz>= 1.0000 <S**2>= 2.0402 S= 1.0133
 <L.S>= 0.000000000000E+00
 Annihilation of the first spin contaminant:
 S**2 before annihilation     2.0402,   after     2.0007
 QCSCF skips out because SCF is already converged.

 **********************************************************************

            Population analysis using the SCF density.

 **********************************************************************

 Alpha  occ. eigenvalues -- -277.47308-277.47308 -32.77842 -32.77841 -28.47011
 Alpha  occ. eigenvalues --  -28.47009 -28.42136 -28.42136 -28.42136 -28.42136
 Alpha  occ. eigenvalues --   -3.70919  -3.70372  -2.46408  -2.43711  -2.36240
 Alpha  occ. eigenvalues --   -2.36240  -2.35910  -2.35910  -0.32172  -0.32172
 Alpha  occ. eigenvalues --   -0.28803  -0.25611  -0.25611  -0.22303  -0.22303
 Alpha  occ. eigenvalues --   -0.20374  -0.20374  -0.20249
 Alpha virt. eigenvalues --   -0.13552  -0.09130  -0.02793  -0.02793  -0.00607
 Alpha virt. eigenvalues --    0.02056   0.02487   0.04742   0.04742   0.11489
 Alpha virt. eigenvalues --    0.16194   0.18679   0.18679   0.20875   0.22182
 Alpha virt. eigenvalues --    0.25281   0.25281   0.25337   0.25337   0.31967
 Alpha virt. eigenvalues --    0.31967   0.34549   0.34549   0.35383   0.45127
 Alpha virt. eigenvalues --    0.47515   0.47515   0.76831   1.32776   1.32776
 Alpha virt. eigenvalues --    1.37308   1.46486   1.46486   1.54569   1.54569
 Alpha virt. eigenvalues --    1.63199   1.63199   1.63731   1.69335   1.69335
 Alpha virt. eigenvalues --    1.73540   1.80547   1.80547   2.20618   3.11303
 Alpha virt. eigenvalues --    3.38983   6.14635   6.14635   6.22137   6.22137
 Alpha virt. eigenvalues --    6.27788   6.27788   6.30337   6.30337   6.31029
 Alpha virt. eigenvalues --    6.43901   7.99790   8.13177   8.13177   8.23156
 Alpha virt. eigenvalues --    8.23156   8.53414  27.48382  27.72335  33.79625
 Alpha virt. eigenvalues --   33.89602  33.89602  33.96900  33.96900  34.17675
 Alpha virt. eigenvalues --  153.26170 153.46858 803.98252 804.19641
  Beta  occ. eigenvalues -- -277.47310-277.47310 -32.75370 -32.75370 -28.44343
  Beta  occ. eigenvalues --  -28.44339 -28.40450 -28.40450 -28.40448 -28.40448
  Beta  occ. eigenvalues --   -3.65400  -3.64823  -2.38790  -2.35789  -2.31494
  Beta  occ. eigenvalues --   -2.31494  -2.31070  -2.31070  -0.27338  -0.21442
  Beta  occ. eigenvalues --   -0.21442  -0.19944  -0.19734  -0.19734  -0.17568
  Beta  occ. eigenvalues --   -0.17568
  Beta virt. eigenvalues --   -0.11517  -0.08306  -0.08159  -0.08159  -0.02612
  Beta virt. eigenvalues --   -0.02612  -0.00614   0.02157   0.02667   0.05408
  Beta virt. eigenvalues --    0.05408   0.11597   0.16240   0.19037   0.19037
  Beta virt. eigenvalues --    0.21574   0.22723   0.25411   0.25411   0.26175
  Beta virt. eigenvalues --    0.26175   0.33276   0.33276   0.34876   0.34876
  Beta virt. eigenvalues --    0.35606   0.45379   0.47770   0.47770   0.77277
  Beta virt. eigenvalues --    1.36317   1.36317   1.38140   1.47558   1.47558
  Beta virt. eigenvalues --    1.55681   1.55681   1.65599   1.66498   1.66498
  Beta virt. eigenvalues --    1.70883   1.70883   1.75502   1.82563   1.82563
  Beta virt. eigenvalues --    2.22744   3.13819   3.41513   6.20842   6.20842
  Beta virt. eigenvalues --    6.24380   6.24380   6.30035   6.30035   6.32789
  Beta virt. eigenvalues --    6.36463   6.36463   6.45622   8.04369   8.16077
  Beta virt. eigenvalues --    8.16077   8.26055   8.26055   8.57857  27.51768
  Beta virt. eigenvalues --   27.75728  33.83349  33.92000  33.92000  33.99294
  Beta virt. eigenvalues --   33.99294  34.21383 153.27483 153.48172 803.98514
  Beta virt. eigenvalues --  804.19903
     Alpha Molecular Orbital Coefficients:
                           1         2         3         4         5
                           O         O         O         O         O
     Eigenvalues --  -277.47308-277.47308 -32.77842 -32.77841 -28.47011
   1 1   Co 1S          0.34777   0.34212  -0.11741  -0.11737   0.00014
   2        2S          0.28714   0.28247  -0.17307  -0.17302   0.00021
   3        3S          0.14483   0.14248  -0.06424  -0.06418   0.00008
   4        4S          0.00975   0.00959   0.35374   0.35352  -0.00052
   5        5S         -0.00151  -0.00148   0.43221   0.43226  -0.00037
   6        6S          0.00041   0.00039   0.03820   0.03773  -0.00006
   7        7S         -0.00020  -0.00017  -0.00835  -0.00746   0.00007
   8        8S          0.00023   0.00004   0.00778   0.00160   0.00020
   9        9S          0.00009  -0.00003   0.00275  -0.00091  -0.00019
  10       10S          0.00002   0.00001   0.00056   0.00024   0.00004
  11       11PX         0.00000   0.00000   0.00000   0.00000   0.00000
  12       11PY         0.00000   0.00000   0.00000   0.00000   0.00000
  13       11PZ         0.00000   0.00000   0.00049   0.00050   0.52815
  14       12PX         0.00000   0.00000   0.00000   0.00000   0.00000
  15       12PY         0.00000   0.00000   0.00000   0.00000   0.00000
  16       12PZ         0.00001   0.00000   0.00035   0.00032   0.20982
  17       13PX         0.00000   0.00000   0.00000   0.00000   0.00000
  18       13PY         0.00000   0.00000   0.00000   0.00000   0.00000
  19       13PZ        -0.00001   0.00000  -0.00004   0.00003   0.04134
  20       14PX         0.00000   0.00000   0.00000   0.00000   0.00000
  21       14PY         0.00000   0.00000   0.00000   0.00000   0.00000
  22       14PZ         0.00001   0.00001   0.00020   0.00012  -0.00386
  23       15PX         0.00000   0.00000   0.00000   0.00000   0.00000
  24       15PY         0.00000   0.00000   0.00000   0.00000   0.00000
  25       15PZ        -0.00001  -0.00001  -0.00037  -0.00025   0.00159
  26       16PX         0.00000   0.00000   0.00000   0.00000   0.00000
  27       16PY         0.00000   0.00000   0.00000   0.00000   0.00000
  28       16PZ         0.00016   0.00000   0.00531   0.00010  -0.00044
  29       17PX         0.00000   0.00000   0.00000   0.00000   0.00000
  30       17PY         0.00000   0.00000   0.00000   0.00000   0.00000
  31       17PZ         0.00005   0.00000   0.00144  -0.00002   0.00012
  32       18D 0        0.00000   0.00001   0.00096   0.00097   0.00012
  33       18D+1        0.00000   0.00000   0.00000   0.00000   0.00000
  34       18D-1        0.00000   0.00000   0.00000   0.00000   0.00000
  35       18D+2        0.00000   0.00000   0.00000   0.00000   0.00000
  36       18D-2        0.00000   0.00000   0.00000   0.00000   0.00000
  37       19D 0       -0.00001  -0.00001  -0.00044  -0.00043  -0.00001
  38       19D+1        0.00000   0.00000   0.00000   0.00000   0.00000
  39       19D-1        0.00000   0.00000   0.00000   0.00000   0.00000
  40       19D+2        0.00000   0.00000   0.00000   0.00000   0.00000
  41       19D-2        0.00000   0.00000   0.00000   0.00000   0.00000
  42       20D 0        0.00001   0.00000   0.00059   0.00022  -0.00004
  43       20D+1        0.00000   0.00000   0.00000   0.00000   0.00000
  44       20D-1        0.00000   0.00000   0.00000   0.00000   0.00000
  45       20D+2        0.00000   0.00000   0.00000   0.00000   0.00000
  46       20D-2        0.00000   0.00000   0.00000   0.00000   0.00000
  47       21D 0        0.00005   0.00000   0.00177   0.00007  -0.00013
  48       21D+1        0.00000   0.00000   0.00000   0.00000   0.00000
  49       21D-1        0.00000   0.00000   0.00000   0.00000   0.00000
  50       21D+2        0.00000   0.00000   0.00000   0.00000   0.00000
  51       21D-2        0.00000   0.00000   0.00000   0.00000   0.00000
  52 2   Co 1S         -0.34212   0.34777   0.11737  -0.11741   0.00014
  53        2S         -0.28247   0.28714   0.17301  -0.17308   0.00021
  54        3S         -0.14247   0.14483   0.06421  -0.06420   0.00008
  55        4S         -0.00960   0.00975  -0.35362   0.35364  -0.00052
  56        5S          0.00149  -0.00150  -0.43207   0.43240  -0.00037
  57        6S         -0.00040   0.00039  -0.03819   0.03774  -0.00006
  58        7S          0.00020  -0.00017   0.00835  -0.00747   0.00007
  59        8S         -0.00023   0.00004  -0.00777   0.00160   0.00020
  60        9S         -0.00009  -0.00002  -0.00275  -0.00091  -0.00019
  61       10S         -0.00002   0.00001  -0.00056   0.00024   0.00004
  62       11PX         0.00000   0.00000   0.00000   0.00000   0.00000
  63       11PY         0.00000   0.00000   0.00000   0.00000   0.00000
  64       11PZ         0.00000   0.00000   0.00049  -0.00050  -0.52806
  65       12PX         0.00000   0.00000   0.00000   0.00000   0.00000
  66       12PY         0.00000   0.00000   0.00000   0.00000   0.00000
  67       12PZ         0.00001   0.00000   0.00035  -0.00032  -0.20978
  68       13PX         0.00000   0.00000   0.00000   0.00000   0.00000
  69       13PY         0.00000   0.00000   0.00000   0.00000   0.00000
  70       13PZ        -0.00001   0.00000  -0.00004  -0.00003  -0.04133
  71       14PX         0.00000   0.00000   0.00000   0.00000   0.00000
  72       14PY         0.00000   0.00000   0.00000   0.00000   0.00000
  73       14PZ         0.00001  -0.00001   0.00020  -0.00012   0.00386
  74       15PX         0.00000   0.00000   0.00000   0.00000   0.00000
  75       15PY         0.00000   0.00000   0.00000   0.00000   0.00000
  76       15PZ        -0.00001   0.00001  -0.00037   0.00025  -0.00159
  77       16PX         0.00000   0.00000   0.00000   0.00000   0.00000
  78       16PY         0.00000   0.00000   0.00000   0.00000   0.00000
  79       16PZ         0.00016   0.00000   0.00531  -0.00010   0.00044
  80       17PX         0.00000   0.00000   0.00000   0.00000   0.00000
  81       17PY         0.00000   0.00000   0.00000   0.00000   0.00000
  82       17PZ         0.00005   0.00000   0.00144   0.00002  -0.00012
  83       18D 0        0.00000   0.00001  -0.00096   0.00097   0.00012
  84       18D+1        0.00000   0.00000   0.00000   0.00000   0.00000
  85       18D-1        0.00000   0.00000   0.00000   0.00000   0.00000
  86       18D+2        0.00000   0.00000   0.00000   0.00000   0.00000
  87       18D-2        0.00000   0.00000   0.00000   0.00000   0.00000
  88       19D 0        0.00001  -0.00001   0.00044  -0.00043  -0.00001
  89       19D+1        0.00000   0.00000   0.00000   0.00000   0.00000
  90       19D-1        0.00000   0.00000   0.00000   0.00000   0.00000
  91       19D+2        0.00000   0.00000   0.00000   0.00000   0.00000
  92       19D-2        0.00000   0.00000   0.00000   0.00000   0.00000
  93       20D 0       -0.00001   0.00000  -0.00059   0.00022  -0.00004
  94       20D+1        0.00000   0.00000   0.00000   0.00000   0.00000
  95       20D-1        0.00000   0.00000   0.00000   0.00000   0.00000
  96       20D+2        0.00000   0.00000   0.00000   0.00000   0.00000
  97       20D-2        0.00000   0.00000   0.00000   0.00000   0.00000
  98       21D 0       -0.00005   0.00000  -0.00177   0.00007  -0.00012
  99       21D+1        0.00000   0.00000   0.00000   0.00000   0.00000
 100       21D-1        0.00000   0.00000   0.00000   0.00000   0.00000
 101       21D+2        0.00000   0.00000   0.00000   0.00000   0.00000
 102       21D-2        0.00000   0.00000   0.00000   0.00000   0.00000
                           6         7         8         9        10
                           O         O         O         O         O
     Eigenvalues --   -28.47009 -28.42136 -28.42136 -28.42136 -28.42136
   1 1   Co 1S          0.00014   0.00000   0.00000   0.00000   0.00000
   2        2S          0.00021   0.00000   0.00000   0.00000   0.00000
   3        3S          0.00008   0.00000   0.00000   0.00000   0.00000
   4        4S         -0.00053   0.00000   0.00000   0.00000   0.00000
   5        5S         -0.00035   0.00000   0.00000   0.00000   0.00000
   6        6S         -0.00007   0.00000   0.00000   0.00000   0.00000
   7        7S          0.00005   0.00000   0.00000   0.00000   0.00000
   8        8S         -0.00074   0.00000   0.00000   0.00000   0.00000
   9        9S         -0.00226   0.00000   0.00000   0.00000   0.00000
  10       10S          0.00008   0.00000   0.00000   0.00000   0.00000
  11       11PX         0.00000   0.50565   0.15630   0.52738  -0.02316
  12       11PY         0.00000  -0.15630   0.50565   0.02316   0.52738
  13       11PZ         0.52807   0.00000   0.00000   0.00000   0.00000
  14       12PX         0.00000   0.20026   0.06190   0.20888  -0.00917
  15       12PY         0.00000  -0.06190   0.20026   0.00917   0.20888
  16       12PZ         0.20971   0.00000   0.00000   0.00000   0.00000
  17       13PX         0.00000   0.03944   0.01219   0.04110  -0.00180
  18       13PY         0.00000  -0.01219   0.03944   0.00180   0.04110
  19       13PZ         0.04152   0.00000   0.00000   0.00000   0.00000
  20       14PX         0.00000  -0.00374  -0.00116  -0.00385   0.00017
  21       14PY         0.00000   0.00116  -0.00374  -0.00017  -0.00385
  22       14PZ        -0.00418   0.00000   0.00000   0.00000   0.00000
  23       15PX         0.00000   0.00156   0.00048   0.00156  -0.00007
  24       15PY         0.00000  -0.00048   0.00156   0.00007   0.00156
  25       15PZ         0.00185   0.00000   0.00000   0.00000   0.00000
  26       16PX         0.00000  -0.00060  -0.00019  -0.00037   0.00002
  27       16PY         0.00000   0.00019  -0.00060  -0.00002  -0.00037
  28       16PZ        -0.00124   0.00000   0.00000   0.00000   0.00000
  29       17PX         0.00000   0.00012   0.00004   0.00012  -0.00001
  30       17PY         0.00000  -0.00004   0.00012   0.00001   0.00012
  31       17PZ        -0.00074   0.00000   0.00000   0.00000   0.00000
  32       18D 0        0.00014   0.00000   0.00000   0.00000   0.00000
  33       18D+1        0.00000   0.00010   0.00003   0.00010   0.00000
  34       18D-1        0.00000  -0.00003   0.00010   0.00000   0.00010
  35       18D+2        0.00000   0.00000   0.00000   0.00000   0.00000
  36       18D-2        0.00000   0.00000   0.00000   0.00000   0.00000
  37       19D 0       -0.00014   0.00000   0.00000   0.00000   0.00000
  38       19D+1        0.00000  -0.00005  -0.00002  -0.00002   0.00000
  39       19D-1        0.00000   0.00002  -0.00005   0.00000  -0.00002
  40       19D+2        0.00000   0.00000   0.00000   0.00000   0.00000
  41       19D-2        0.00000   0.00000   0.00000   0.00000   0.00000
  42       20D 0        0.00024   0.00000   0.00000   0.00000   0.00000
  43       20D+1        0.00000   0.00005   0.00001  -0.00001   0.00000
  44       20D-1        0.00000  -0.00001   0.00005   0.00000  -0.00001
  45       20D+2        0.00000   0.00000   0.00000   0.00000   0.00000
  46       20D-2        0.00000   0.00000   0.00000   0.00000   0.00000
  47       21D 0       -0.00042   0.00000   0.00000   0.00000   0.00000
  48       21D+1        0.00000  -0.00022  -0.00007   0.00002   0.00000
  49       21D-1        0.00000   0.00007  -0.00022   0.00000   0.00002
  50       21D+2        0.00000   0.00000   0.00000   0.00000   0.00000
  51       21D-2        0.00000   0.00000   0.00000   0.00000   0.00000
  52 2   Co 1S         -0.00014   0.00000   0.00000   0.00000   0.00000
  53        2S         -0.00021   0.00000   0.00000   0.00000   0.00000
  54        3S         -0.00008   0.00000   0.00000   0.00000   0.00000
  55        4S          0.00053   0.00000   0.00000   0.00000   0.00000
  56        5S          0.00035   0.00000   0.00000   0.00000   0.00000
  57        6S          0.00007   0.00000   0.00000   0.00000   0.00000
  58        7S         -0.00005   0.00000   0.00000   0.00000   0.00000
  59        8S          0.00074   0.00000   0.00000   0.00000   0.00000
  60        9S          0.00226   0.00000   0.00000   0.00000   0.00000
  61       10S         -0.00008   0.00000   0.00000   0.00000   0.00000
  62       11PX         0.00000  -0.50434  -0.15589   0.52874  -0.02322
  63       11PY         0.00000   0.15589  -0.50434   0.02322   0.52874
  64       11PZ         0.52816   0.00000   0.00000   0.00000   0.00000
  65       12PX         0.00000  -0.19974  -0.06174   0.20942  -0.00920
  66       12PY         0.00000   0.06174  -0.19974   0.00920   0.20942
  67       12PZ         0.20975   0.00000   0.00000   0.00000   0.00000
  68       13PX         0.00000  -0.03933  -0.01216   0.04120  -0.00181
  69       13PY         0.00000   0.01216  -0.03933   0.00181   0.04120
  70       13PZ         0.04153   0.00000   0.00000   0.00000   0.00000
  71       14PX         0.00000   0.00373   0.00115  -0.00386   0.00017
  72       14PY         0.00000  -0.00115   0.00373  -0.00017  -0.00386
  73       14PZ        -0.00418   0.00000   0.00000   0.00000   0.00000
  74       15PX         0.00000  -0.00156  -0.00048   0.00156  -0.00007
  75       15PY         0.00000   0.00048  -0.00156   0.00007   0.00156
  76       15PZ         0.00185   0.00000   0.00000   0.00000   0.00000
  77       16PX         0.00000   0.00060   0.00019  -0.00037   0.00002
  78       16PY         0.00000  -0.00019   0.00060  -0.00002  -0.00037
  79       16PZ        -0.00124   0.00000   0.00000   0.00000   0.00000
  80       17PX         0.00000  -0.00012  -0.00004   0.00012  -0.00001
  81       17PY         0.00000   0.00004  -0.00012   0.00001   0.00012
  82       17PZ        -0.00074   0.00000   0.00000   0.00000   0.00000
  83       18D 0       -0.00014   0.00000   0.00000   0.00000   0.00000
  84       18D+1        0.00000   0.00010   0.00003  -0.00010   0.00000
  85       18D-1        0.00000  -0.00003   0.00010   0.00000  -0.00010
  86       18D+2        0.00000   0.00000   0.00000   0.00000   0.00000
  87       18D-2        0.00000   0.00000   0.00000   0.00000   0.00000
  88       19D 0        0.00014   0.00000   0.00000   0.00000   0.00000
  89       19D+1        0.00000  -0.00005  -0.00002   0.00002   0.00000
  90       19D-1        0.00000   0.00002  -0.00005   0.00000   0.00002
  91       19D+2        0.00000   0.00000   0.00000   0.00000   0.00000
  92       19D-2        0.00000   0.00000   0.00000   0.00000   0.00000
  93       20D 0       -0.00024   0.00000   0.00000   0.00000   0.00000
  94       20D+1        0.00000   0.00005   0.00001   0.00001   0.00000
  95       20D-1        0.00000  -0.00001   0.00005   0.00000   0.00001
  96       20D+2        0.00000   0.00000   0.00000   0.00000   0.00000
  97       20D-2        0.00000   0.00000   0.00000   0.00000   0.00000
  98       21D 0        0.00042   0.00000   0.00000   0.00000   0.00000
  99       21D+1        0.00000  -0.00022  -0.00007  -0.00002   0.00000
 100       21D-1        0.00000   0.00007  -0.00022   0.00000  -0.00002
 101       21D+2        0.00000   0.00000   0.00000   0.00000   0.00000
 102       21D-2        0.00000   0.00000   0.00000   0.00000   0.00000
                          11        12        13        14        15
                           O         O         O         O         O
     Eigenvalues --    -3.70919  -3.70372  -2.46408  -2.43711  -2.36240
   1 1   Co 1S          0.04507   0.04519  -0.00049   0.00038   0.00000
   2        2S          0.07019   0.07040  -0.00077   0.00061   0.00000
   3        3S          0.03045   0.03048  -0.00031   0.00023   0.00000
   4        4S         -0.22075  -0.22120   0.00240  -0.00176   0.00000
   5        5S         -0.34451  -0.34586   0.00374  -0.00371   0.00000
   6        6S          0.47950   0.48203  -0.00471   0.00758   0.00000
   7        7S          0.41119   0.41143  -0.00640   0.00110   0.00000
   8        8S          0.01515   0.02229   0.00181  -0.01205   0.00000
   9        9S         -0.00633  -0.00816  -0.00081  -0.00966   0.00000
  10       10S          0.00153   0.00260   0.00011  -0.00153   0.00000
  11       11PX         0.00000   0.00000   0.00000   0.00000  -0.21736
  12       11PY         0.00000   0.00000   0.00000   0.00000  -0.00304
  13       11PZ        -0.00138  -0.00029  -0.21619  -0.21941   0.00000
  14       12PX         0.00000   0.00000   0.00000   0.00000  -0.06624
  15       12PY         0.00000   0.00000   0.00000   0.00000  -0.00093
  16       12PZ        -0.00077  -0.00016  -0.06681  -0.06763   0.00000
  17       13PX         0.00000   0.00000   0.00000   0.00000   0.26487
  18       13PY         0.00000   0.00000   0.00000   0.00000   0.00370
  19       13PZ         0.00275   0.00061   0.26407   0.26795   0.00000
  20       14PX         0.00000   0.00000   0.00000   0.00000   0.37679
  21       14PY         0.00000   0.00000   0.00000   0.00000   0.00527
  22       14PZ         0.00104   0.00136   0.37509   0.38328   0.00000
  23       15PX         0.00000   0.00000   0.00000   0.00000   0.17870
  24       15PY         0.00000   0.00000   0.00000   0.00000   0.00250
  25       15PZ         0.00098  -0.00291   0.17755   0.17505   0.00000
  26       16PX         0.00000   0.00000   0.00000   0.00000   0.00700
  27       16PY         0.00000   0.00000   0.00000   0.00000   0.00010
  28       16PZ        -0.00010   0.00615   0.00550  -0.00343   0.00000
  29       17PX         0.00000   0.00000   0.00000   0.00000  -0.00098
  30       17PY         0.00000   0.00000   0.00000   0.00000  -0.00001
  31       17PZ         0.00009  -0.00055  -0.00165  -0.00493   0.00000
  32       18D 0        0.00688   0.00647   0.00170  -0.00082   0.00000
  33       18D+1        0.00000   0.00000   0.00000   0.00000   0.00128
  34       18D-1        0.00000   0.00000   0.00000   0.00000   0.00002
  35       18D+2        0.00000   0.00000   0.00000   0.00000   0.00000
  36       18D-2        0.00000   0.00000   0.00000   0.00000   0.00000
  37       19D 0        0.00823   0.00798   0.00127  -0.00176   0.00000
  38       19D+1        0.00000   0.00000   0.00000   0.00000   0.00000
  39       19D-1        0.00000   0.00000   0.00000   0.00000   0.00000
  40       19D+2        0.00000   0.00000   0.00000   0.00000   0.00000
  41       19D-2        0.00000   0.00000   0.00000   0.00000   0.00000
  42       20D 0        0.00150  -0.00078   0.00290  -0.00223   0.00000
  43       20D+1        0.00000   0.00000   0.00000   0.00000   0.00036
  44       20D-1        0.00000   0.00000   0.00000   0.00000   0.00001
  45       20D+2        0.00000   0.00000   0.00000   0.00000   0.00000
  46       20D-2        0.00000   0.00000   0.00000   0.00000   0.00000
  47       21D 0        0.00027   0.00243  -0.00115  -0.00324   0.00000
  48       21D+1        0.00000   0.00000   0.00000   0.00000  -0.00025
  49       21D-1        0.00000   0.00000   0.00000   0.00000   0.00000
  50       21D+2        0.00000   0.00000   0.00000   0.00000   0.00000
  51       21D-2        0.00000   0.00000   0.00000   0.00000   0.00000
  52 2   Co 1S          0.04507  -0.04519  -0.00049  -0.00038   0.00000
  53        2S          0.07019  -0.07040  -0.00077  -0.00061   0.00000
  54        3S          0.03045  -0.03048  -0.00031  -0.00023   0.00000
  55        4S         -0.22075   0.22120   0.00240   0.00176   0.00000
  56        5S         -0.34451   0.34586   0.00374   0.00371   0.00000
  57        6S          0.47950  -0.48203  -0.00471  -0.00758   0.00000
  58        7S          0.41119  -0.41143  -0.00640  -0.00110   0.00000
  59        8S          0.01515  -0.02229   0.00181   0.01205   0.00000
  60        9S         -0.00633   0.00816  -0.00081   0.00966   0.00000
  61       10S          0.00153  -0.00260   0.00011   0.00153   0.00000
  62       11PX         0.00000   0.00000   0.00000   0.00000  -0.21736
  63       11PY         0.00000   0.00000   0.00000   0.00000  -0.00304
  64       11PZ         0.00138  -0.00029   0.21619  -0.21941   0.00000
  65       12PX         0.00000   0.00000   0.00000   0.00000  -0.06624
  66       12PY         0.00000   0.00000   0.00000   0.00000  -0.00093
  67       12PZ         0.00077  -0.00016   0.06681  -0.06763   0.00000
  68       13PX         0.00000   0.00000   0.00000   0.00000   0.26487
  69       13PY         0.00000   0.00000   0.00000   0.00000   0.00370
  70       13PZ        -0.00275   0.00061  -0.26407   0.26795   0.00000
  71       14PX         0.00000   0.00000   0.00000   0.00000   0.37679
  72       14PY         0.00000   0.00000   0.00000   0.00000   0.00527
  73       14PZ        -0.00104   0.00136  -0.37509   0.38328   0.00000
  74       15PX         0.00000   0.00000   0.00000   0.00000   0.17870
  75       15PY         0.00000   0.00000   0.00000   0.00000   0.00250
  76       15PZ        -0.00098  -0.00291  -0.17755   0.17505   0.00000
  77       16PX         0.00000   0.00000   0.00000   0.00000   0.00700
  78       16PY         0.00000   0.00000   0.00000   0.00000   0.00010
  79       16PZ         0.00010   0.00615  -0.00550  -0.00343   0.00000
  80       17PX         0.00000   0.00000   0.00000   0.00000  -0.00098
  81       17PY         0.00000   0.00000   0.00000   0.00000  -0.00001
  82       17PZ        -0.00009  -0.00055   0.00165  -0.00493   0.00000
  83       18D 0        0.00688  -0.00647   0.00170   0.00082   0.00000
  84       18D+1        0.00000   0.00000   0.00000   0.00000  -0.00128
  85       18D-1        0.00000   0.00000   0.00000   0.00000  -0.00002
  86       18D+2        0.00000   0.00000   0.00000   0.00000   0.00000
  87       18D-2        0.00000   0.00000   0.00000   0.00000   0.00000
  88       19D 0        0.00823  -0.00798   0.00127   0.00176   0.00000
  89       19D+1        0.00000   0.00000   0.00000   0.00000   0.00000
  90       19D-1        0.00000   0.00000   0.00000   0.00000   0.00000
  91       19D+2        0.00000   0.00000   0.00000   0.00000   0.00000
  92       19D-2        0.00000   0.00000   0.00000   0.00000   0.00000
  93       20D 0        0.00150   0.00078   0.00290   0.00223   0.00000
  94       20D+1        0.00000   0.00000   0.00000   0.00000  -0.00036
  95       20D-1        0.00000   0.00000   0.00000   0.00000  -0.00001
  96       20D+2        0.00000   0.00000   0.00000   0.00000   0.00000
  97       20D-2        0.00000   0.00000   0.00000   0.00000   0.00000
  98       21D 0        0.00027  -0.00243  -0.00115   0.00324   0.00000
  99       21D+1        0.00000   0.00000   0.00000   0.00000   0.00025
 100       21D-1        0.00000   0.00000   0.00000   0.00000   0.00000
 101       21D+2        0.00000   0.00000   0.00000   0.00000   0.00000
 102       21D-2        0.00000   0.00000   0.00000   0.00000   0.00000
                          16        17        18        19        20
                           O         O         O         O         O
     Eigenvalues --    -2.36240  -2.35910  -2.35910  -0.32172  -0.32172
   1 1   Co 1S          0.00000   0.00000   0.00000   0.00000   0.00000
   2        2S          0.00000   0.00000   0.00000   0.00000   0.00000
   3        3S          0.00000   0.00000   0.00000   0.00000   0.00000
   4        4S          0.00000   0.00000   0.00000   0.00000   0.00000
   5        5S          0.00000   0.00000   0.00000   0.00000   0.00000
   6        6S          0.00000   0.00000   0.00000   0.00000   0.00000
   7        7S          0.00000   0.00000   0.00000   0.00000   0.00000
   8        8S          0.00000   0.00000   0.00000   0.00000   0.00000
   9        9S          0.00000   0.00000   0.00000   0.00000   0.00000
  10       10S          0.00000   0.00000   0.00000   0.00000   0.00000
  11       11PX         0.00304  -0.21786   0.00369  -0.00180   0.00573
  12       11PY        -0.21736  -0.00369  -0.21786   0.00573   0.00180
  13       11PZ         0.00000   0.00000   0.00000   0.00000   0.00000
  14       12PX         0.00093  -0.06634   0.00112  -0.00042   0.00135
  15       12PY        -0.06624  -0.00112  -0.06634   0.00135   0.00042
  16       12PZ         0.00000   0.00000   0.00000   0.00000   0.00000
  17       13PX        -0.00370   0.26534  -0.00450   0.00208  -0.00661
  18       13PY         0.26487   0.00450   0.26534  -0.00661  -0.00208
  19       13PZ         0.00000   0.00000   0.00000   0.00000   0.00000
  20       14PX        -0.00527   0.37823  -0.00641   0.00449  -0.01431
  21       14PY         0.37679   0.00641   0.37823  -0.01431  -0.00449
  22       14PZ         0.00000   0.00000   0.00000   0.00000   0.00000
  23       15PX        -0.00250   0.17838  -0.00302   0.00031  -0.00099
  24       15PY         0.17870   0.00302   0.17838  -0.00099  -0.00031
  25       15PZ         0.00000   0.00000   0.00000   0.00000   0.00000
  26       16PX        -0.00010   0.00591  -0.00010  -0.00242   0.00772
  27       16PY         0.00700   0.00010   0.00591   0.00772   0.00242
  28       16PZ         0.00000   0.00000   0.00000   0.00000   0.00000
  29       17PX         0.00001  -0.00117   0.00002  -0.00008   0.00025
  30       17PY        -0.00098  -0.00002  -0.00117   0.00025   0.00008
  31       17PZ         0.00000   0.00000   0.00000   0.00000   0.00000
  32       18D 0        0.00000   0.00000   0.00000   0.00000   0.00000
  33       18D+1       -0.00002   0.00080  -0.00001  -0.09313   0.29656
  34       18D-1        0.00128   0.00001   0.00080   0.29656   0.09313
  35       18D+2        0.00000   0.00000   0.00000   0.00000   0.00000
  36       18D-2        0.00000   0.00000   0.00000   0.00000   0.00000
  37       19D 0        0.00000   0.00000   0.00000   0.00000   0.00000
  38       19D+1        0.00000  -0.00006   0.00000  -0.08879   0.28273
  39       19D-1        0.00000   0.00000  -0.00006   0.28273   0.08879
  40       19D+2        0.00000   0.00000   0.00000   0.00000   0.00000
  41       19D-2        0.00000   0.00000   0.00000   0.00000   0.00000
  42       20D 0        0.00000   0.00000   0.00000   0.00000   0.00000
  43       20D+1       -0.00001  -0.00190   0.00003  -0.07187   0.22885
  44       20D-1        0.00036  -0.00003  -0.00190   0.22885   0.07187
  45       20D+2        0.00000   0.00000   0.00000   0.00000   0.00000
  46       20D-2        0.00000   0.00000   0.00000   0.00000   0.00000
  47       21D 0        0.00000   0.00000   0.00000   0.00000   0.00000
  48       21D+1        0.00000  -0.00036   0.00001  -0.02203   0.07015
  49       21D-1       -0.00025  -0.00001  -0.00036   0.07015   0.02203
  50       21D+2        0.00000   0.00000   0.00000   0.00000   0.00000
  51       21D-2        0.00000   0.00000   0.00000   0.00000   0.00000
  52 2   Co 1S          0.00000   0.00000   0.00000   0.00000   0.00000
  53        2S          0.00000   0.00000   0.00000   0.00000   0.00000
  54        3S          0.00000   0.00000   0.00000   0.00000   0.00000
  55        4S          0.00000   0.00000   0.00000   0.00000   0.00000
  56        5S          0.00000   0.00000   0.00000   0.00000   0.00000
  57        6S          0.00000   0.00000   0.00000   0.00000   0.00000
  58        7S          0.00000   0.00000   0.00000   0.00000   0.00000
  59        8S          0.00000   0.00000   0.00000   0.00000   0.00000
  60        9S          0.00000   0.00000   0.00000   0.00000   0.00000
  61       10S          0.00000   0.00000   0.00000   0.00000   0.00000
  62       11PX         0.00304   0.21786  -0.00369  -0.00180   0.00573
  63       11PY        -0.21736   0.00369   0.21786   0.00573   0.00180
  64       11PZ         0.00000   0.00000   0.00000   0.00000   0.00000
  65       12PX         0.00093   0.06634  -0.00112  -0.00042   0.00135
  66       12PY        -0.06624   0.00112   0.06634   0.00135   0.00042
  67       12PZ         0.00000   0.00000   0.00000   0.00000   0.00000
  68       13PX        -0.00370  -0.26535   0.00450   0.00208  -0.00661
  69       13PY         0.26487  -0.00450  -0.26535  -0.00661  -0.00208
  70       13PZ         0.00000   0.00000   0.00000   0.00000   0.00000
  71       14PX        -0.00527  -0.37823   0.00641   0.00449  -0.01431
  72       14PY         0.37679  -0.00641  -0.37823  -0.01431  -0.00449
  73       14PZ         0.00000   0.00000   0.00000   0.00000   0.00000
  74       15PX        -0.00250  -0.17838   0.00302   0.00031  -0.00099
  75       15PY         0.17870  -0.00302  -0.17838  -0.00099  -0.00031
  76       15PZ         0.00000   0.00000   0.00000   0.00000   0.00000
  77       16PX        -0.00010  -0.00591   0.00010  -0.00242   0.00772
  78       16PY         0.00700  -0.00010  -0.00591   0.00772   0.00242
  79       16PZ         0.00000   0.00000   0.00000   0.00000   0.00000
  80       17PX         0.00001   0.00117  -0.00002  -0.00008   0.00025
  81       17PY        -0.00098   0.00002   0.00117   0.00025   0.00008
  82       17PZ         0.00000   0.00000   0.00000   0.00000   0.00000
  83       18D 0        0.00000   0.00000   0.00000   0.00000   0.00000
  84       18D+1        0.00002   0.00080  -0.00001   0.09313  -0.29656
  85       18D-1       -0.00128   0.00001   0.00080  -0.29656  -0.09313
  86       18D+2        0.00000   0.00000   0.00000   0.00000   0.00000
  87       18D-2        0.00000   0.00000   0.00000   0.00000   0.00000
  88       19D 0        0.00000   0.00000   0.00000   0.00000   0.00000
  89       19D+1        0.00000  -0.00006   0.00000   0.08879  -0.28273
  90       19D-1        0.00000   0.00000  -0.00006  -0.28273  -0.08879
  91       19D+2        0.00000   0.00000   0.00000   0.00000   0.00000
  92       19D-2        0.00000   0.00000   0.00000   0.00000   0.00000
  93       20D 0        0.00000   0.00000   0.00000   0.00000   0.00000
  94       20D+1        0.00001  -0.00190   0.00003   0.07187  -0.22885
  95       20D-1       -0.00036  -0.00003  -0.00190  -0.22885  -0.07187
  96       20D+2        0.00000   0.00000   0.00000   0.00000   0.00000
  97       20D-2        0.00000   0.00000   0.00000   0.00000   0.00000
  98       21D 0        0.00000   0.00000   0.00000   0.00000   0.00000
  99       21D+1        0.00000  -0.00036   0.00001   0.02203  -0.07015
 100       21D-1        0.00025  -0.00001  -0.00036  -0.07015  -0.02203
 101       21D+2        0.00000   0.00000   0.00000   0.00000   0.00000
 102       21D-2        0.00000   0.00000   0.00000   0.00000   0.00000
                          21        22        23        24        25
                           O         O         O         O         O
     Eigenvalues --    -0.28803  -0.25611  -0.25611  -0.22303  -0.22303
   1 1   Co 1S         -0.00620   0.00000   0.00000   0.00000   0.00000
   2        2S         -0.00982   0.00000   0.00000   0.00000   0.00000
   3        3S         -0.00402   0.00000   0.00000   0.00000   0.00000
   4        4S          0.03116   0.00000   0.00000   0.00000   0.00000
   5        5S          0.05472   0.00000   0.00000   0.00000   0.00000
   6        6S         -0.10051   0.00000   0.00000   0.00000   0.00000
   7        7S         -0.09540   0.00000   0.00000   0.00000   0.00000
   8        8S          0.15502   0.00000   0.00000   0.00000   0.00000
   9        9S          0.02593   0.00000   0.00000   0.00000   0.00000
  10       10S          0.00358   0.00000   0.00000   0.00000   0.00000
  11       11PX         0.00000  -0.00277  -0.00893   0.00000   0.00000
  12       11PY         0.00000  -0.00893   0.00277   0.00000   0.00000
  13       11PZ         0.01763   0.00000   0.00000   0.00000   0.00000
  14       12PX         0.00000  -0.00069  -0.00222   0.00000   0.00000
  15       12PY         0.00000  -0.00222   0.00069   0.00000   0.00000
  16       12PZ         0.00444   0.00000   0.00000   0.00000   0.00000
  17       13PX         0.00000   0.00348   0.01121   0.00000   0.00000
  18       13PY         0.00000   0.01121  -0.00348   0.00000   0.00000
  19       13PZ        -0.02211   0.00000   0.00000   0.00000   0.00000
  20       14PX         0.00000   0.00736   0.02369   0.00000   0.00000
  21       14PY         0.00000   0.02369  -0.00736   0.00000   0.00000
  22       14PZ        -0.04458   0.00000   0.00000   0.00000   0.00000
  23       15PX         0.00000  -0.00237  -0.00764   0.00000   0.00000
  24       15PY         0.00000  -0.00764   0.00237   0.00000   0.00000
  25       15PZ         0.00671   0.00000   0.00000   0.00000   0.00000
  26       16PX         0.00000  -0.00744  -0.02394   0.00000   0.00000
  27       16PY         0.00000  -0.02394   0.00744   0.00000   0.00000
  28       16PZ         0.01437   0.00000   0.00000   0.00000   0.00000
  29       17PX         0.00000  -0.00049  -0.00157   0.00000   0.00000
  30       17PY         0.00000  -0.00157   0.00049   0.00000   0.00000
  31       17PZ        -0.00061   0.00000   0.00000   0.00000   0.00000
  32       18D 0        0.28637   0.00000   0.00000   0.00000   0.00000
  33       18D+1        0.00000   0.09881   0.31798   0.00000   0.00000
  34       18D-1        0.00000   0.31798  -0.09881   0.00000   0.00000
  35       18D+2        0.00000   0.00000   0.00000   0.00000   0.31025
  36       18D-2        0.00000   0.00000   0.00000   0.31025   0.00000
  37       19D 0        0.27713   0.00000   0.00000   0.00000   0.00000
  38       19D+1        0.00000   0.09395   0.30235   0.00000   0.00000
  39       19D-1        0.00000   0.30235  -0.09395   0.00000   0.00000
  40       19D+2        0.00000   0.00000   0.00000   0.00000   0.29577
  41       19D-2        0.00000   0.00000   0.00000   0.29577   0.00000
  42       20D 0        0.23460   0.00000   0.00000   0.00000   0.00000
  43       20D+1        0.00000   0.07142   0.22983   0.00000   0.00000
  44       20D-1        0.00000   0.22983  -0.07142   0.00000   0.00000
  45       20D+2        0.00000   0.00000   0.00000   0.00000   0.24304
  46       20D-2        0.00000   0.00000   0.00000   0.24304   0.00000
  47       21D 0        0.08101   0.00000   0.00000   0.00000   0.00000
  48       21D+1        0.00000   0.02948   0.09488   0.00000   0.00000
  49       21D-1        0.00000   0.09488  -0.02948   0.00000   0.00000
  50       21D+2        0.00000   0.00000   0.00000   0.00000   0.10330
  51       21D-2        0.00000   0.00000   0.00000   0.10330   0.00000
  52 2   Co 1S         -0.00620   0.00000   0.00000   0.00000   0.00000
  53        2S         -0.00982   0.00000   0.00000   0.00000   0.00000
  54        3S         -0.00402   0.00000   0.00000   0.00000   0.00000
  55        4S          0.03116   0.00000   0.00000   0.00000   0.00000
  56        5S          0.05472   0.00000   0.00000   0.00000   0.00000
  57        6S         -0.10051   0.00000   0.00000   0.00000   0.00000
  58        7S         -0.09540   0.00000   0.00000   0.00000   0.00000
  59        8S          0.15502   0.00000   0.00000   0.00000   0.00000
  60        9S          0.02593   0.00000   0.00000   0.00000   0.00000
  61       10S          0.00358   0.00000   0.00000   0.00000   0.00000
  62       11PX         0.00000   0.00277   0.00893   0.00000   0.00000
  63       11PY         0.00000   0.00893  -0.00277   0.00000   0.00000
  64       11PZ        -0.01763   0.00000   0.00000   0.00000   0.00000
  65       12PX         0.00000   0.00069   0.00222   0.00000   0.00000
  66       12PY         0.00000   0.00222  -0.00069   0.00000   0.00000
  67       12PZ        -0.00444   0.00000   0.00000   0.00000   0.00000
  68       13PX         0.00000  -0.00348  -0.01121   0.00000   0.00000
  69       13PY         0.00000  -0.01121   0.00348   0.00000   0.00000
  70       13PZ         0.02211   0.00000   0.00000   0.00000   0.00000
  71       14PX         0.00000  -0.00736  -0.02369   0.00000   0.00000
  72       14PY         0.00000  -0.02369   0.00736   0.00000   0.00000
  73       14PZ         0.04458   0.00000   0.00000   0.00000   0.00000
  74       15PX         0.00000   0.00237   0.00764   0.00000   0.00000
  75       15PY         0.00000   0.00764  -0.00237   0.00000   0.00000
  76       15PZ        -0.00671   0.00000   0.00000   0.00000   0.00000
  77       16PX         0.00000   0.00744   0.02394   0.00000   0.00000
  78       16PY         0.00000   0.02394  -0.00744   0.00000   0.00000
  79       16PZ        -0.01437   0.00000   0.00000   0.00000   0.00000
  80       17PX         0.00000   0.00049   0.00157   0.00000   0.00000
  81       17PY         0.00000   0.00157  -0.00049   0.00000   0.00000
  82       17PZ         0.00061   0.00000   0.00000   0.00000   0.00000
  83       18D 0        0.28637   0.00000   0.00000   0.00000   0.00000
  84       18D+1        0.00000   0.09881   0.31798   0.00000   0.00000
  85       18D-1        0.00000   0.31798  -0.09881   0.00000   0.00000
  86       18D+2        0.00000   0.00000   0.00000   0.00000   0.31025
  87       18D-2        0.00000   0.00000   0.00000   0.31025   0.00000
  88       19D 0        0.27713   0.00000   0.00000   0.00000   0.00000
  89       19D+1        0.00000   0.09395   0.30235   0.00000   0.00000
  90       19D-1        0.00000   0.30235  -0.09395   0.00000   0.00000
  91       19D+2        0.00000   0.00000   0.00000   0.00000   0.29577
  92       19D-2        0.00000   0.00000   0.00000   0.29577   0.00000
  93       20D 0        0.23460   0.00000   0.00000   0.00000   0.00000
  94       20D+1        0.00000   0.07142   0.22983   0.00000   0.00000
  95       20D-1        0.00000   0.22983  -0.07142   0.00000   0.00000
  96       20D+2        0.00000   0.00000   0.00000   0.00000   0.24304
  97       20D-2        0.00000   0.00000   0.00000   0.24304   0.00000
  98       21D 0        0.08101   0.00000   0.00000   0.00000   0.00000
  99       21D+1        0.00000   0.02948   0.09488   0.00000   0.00000
 100       21D-1        0.00000   0.09488  -0.02948   0.00000   0.00000
 101       21D+2        0.00000   0.00000   0.00000   0.00000   0.10330
 102       21D-2        0.00000   0.00000   0.00000   0.10330   0.00000
                          26        27        28        29        30
                           O         O         O         V         V
     Eigenvalues --    -0.20374  -0.20374  -0.20249  -0.13552  -0.09130
   1 1   Co 1S          0.00000   0.00000  -0.01012   0.00227  -0.00767
   2        2S          0.00000   0.00000  -0.01592   0.00362  -0.01204
   3        3S          0.00000   0.00000  -0.00682   0.00139  -0.00526
   4        4S          0.00000   0.00000   0.05177  -0.01113   0.03962
   5        5S          0.00000   0.00000   0.08751  -0.02109   0.06557
   6        6S          0.00000   0.00000  -0.15779   0.04142  -0.11663
   7        7S          0.00000   0.00000  -0.19938   0.03859  -0.16066
   8        8S          0.00000   0.00000   0.38374  -0.03302   0.32961
   9        9S          0.00000   0.00000   0.23659  -0.14775   0.21389
  10       10S          0.00000   0.00000   0.01014  -0.00723   0.16111
  11       11PX         0.00000   0.00000   0.00000   0.00000   0.00000
  12       11PY         0.00000   0.00000   0.00000   0.00000   0.00000
  13       11PZ         0.00000   0.00000   0.00639  -0.01177  -0.02561
  14       12PX         0.00000   0.00000   0.00000   0.00000   0.00000
  15       12PY         0.00000   0.00000   0.00000   0.00000   0.00000
  16       12PZ         0.00000   0.00000   0.00209  -0.00352  -0.00702
  17       13PX         0.00000   0.00000   0.00000   0.00000   0.00000
  18       13PY         0.00000   0.00000   0.00000   0.00000   0.00000
  19       13PZ         0.00000   0.00000  -0.00986   0.01688   0.03436
  20       14PX         0.00000   0.00000   0.00000   0.00000   0.00000
  21       14PY         0.00000   0.00000   0.00000   0.00000   0.00000
  22       14PZ         0.00000   0.00000  -0.01264   0.02583   0.06125
  23       15PX         0.00000   0.00000   0.00000   0.00000   0.00000
  24       15PY         0.00000   0.00000   0.00000   0.00000   0.00000
  25       15PZ         0.00000   0.00000  -0.00458  -0.00246   0.00314
  26       16PX         0.00000   0.00000   0.00000   0.00000   0.00000
  27       16PY         0.00000   0.00000   0.00000   0.00000   0.00000
  28       16PZ         0.00000   0.00000  -0.00045  -0.00239  -0.18437
  29       17PX         0.00000   0.00000   0.00000   0.00000   0.00000
  30       17PY         0.00000   0.00000   0.00000   0.00000   0.00000
  31       17PZ         0.00000   0.00000  -0.00348  -0.04106  -0.24279
  32       18D 0        0.00000   0.00000  -0.10157   0.31896   0.03326
  33       18D+1        0.00000   0.00000   0.00000   0.00000   0.00000
  34       18D-1        0.00000   0.00000   0.00000   0.00000   0.00000
  35       18D+2        0.00000   0.32182   0.00000   0.00000   0.00000
  36       18D-2        0.32182   0.00000   0.00000   0.00000   0.00000
  37       19D 0        0.00000   0.00000  -0.09700   0.30412   0.03083
  38       19D+1        0.00000   0.00000   0.00000   0.00000   0.00000
  39       19D-1        0.00000   0.00000   0.00000   0.00000   0.00000
  40       19D+2        0.00000   0.30715   0.00000   0.00000   0.00000
  41       19D-2        0.30715   0.00000   0.00000   0.00000   0.00000
  42       20D 0        0.00000   0.00000  -0.07196   0.25052   0.03538
  43       20D+1        0.00000   0.00000   0.00000   0.00000   0.00000
  44       20D-1        0.00000   0.00000   0.00000   0.00000   0.00000
  45       20D+2        0.00000   0.24635   0.00000   0.00000   0.00000
  46       20D-2        0.24635   0.00000   0.00000   0.00000   0.00000
  47       21D 0        0.00000   0.00000  -0.02368   0.11790   0.02454
  48       21D+1        0.00000   0.00000   0.00000   0.00000   0.00000
  49       21D-1        0.00000   0.00000   0.00000   0.00000   0.00000
  50       21D+2        0.00000   0.10848   0.00000   0.00000   0.00000
  51       21D-2        0.10848   0.00000   0.00000   0.00000   0.00000
  52 2   Co 1S          0.00000   0.00000  -0.01012  -0.00227   0.00767
  53        2S          0.00000   0.00000  -0.01592  -0.00362   0.01204
  54        3S          0.00000   0.00000  -0.00682  -0.00139   0.00526
  55        4S          0.00000   0.00000   0.05177   0.01113  -0.03962
  56        5S          0.00000   0.00000   0.08751   0.02109  -0.06557
  57        6S          0.00000   0.00000  -0.15779  -0.04142   0.11663
  58        7S          0.00000   0.00000  -0.19938  -0.03859   0.16066
  59        8S          0.00000   0.00000   0.38374   0.03302  -0.32961
  60        9S          0.00000   0.00000   0.23659   0.14775  -0.21389
  61       10S          0.00000   0.00000   0.01014   0.00723  -0.16111
  62       11PX         0.00000   0.00000   0.00000   0.00000   0.00000
  63       11PY         0.00000   0.00000   0.00000   0.00000   0.00000
  64       11PZ         0.00000   0.00000  -0.00639  -0.01177  -0.02561
  65       12PX         0.00000   0.00000   0.00000   0.00000   0.00000
  66       12PY         0.00000   0.00000   0.00000   0.00000   0.00000
  67       12PZ         0.00000   0.00000  -0.00209  -0.00352  -0.00702
  68       13PX         0.00000   0.00000   0.00000   0.00000   0.00000
  69       13PY         0.00000   0.00000   0.00000   0.00000   0.00000
  70       13PZ         0.00000   0.00000   0.00986   0.01688   0.03436
  71       14PX         0.00000   0.00000   0.00000   0.00000   0.00000
  72       14PY         0.00000   0.00000   0.00000   0.00000   0.00000
  73       14PZ         0.00000   0.00000   0.01264   0.02583   0.06125
  74       15PX         0.00000   0.00000   0.00000   0.00000   0.00000
  75       15PY         0.00000   0.00000   0.00000   0.00000   0.00000
  76       15PZ         0.00000   0.00000   0.00458  -0.00246   0.00314
  77       16PX         0.00000   0.00000   0.00000   0.00000   0.00000
  78       16PY         0.00000   0.00000   0.00000   0.00000   0.00000
  79       16PZ         0.00000   0.00000   0.00045  -0.00239  -0.18437
  80       17PX         0.00000   0.00000   0.00000   0.00000   0.00000
  81       17PY         0.00000   0.00000   0.00000   0.00000   0.00000
  82       17PZ         0.00000   0.00000   0.00348  -0.04106  -0.24279
  83       18D 0        0.00000   0.00000  -0.10157  -0.31896  -0.03326
  84       18D+1        0.00000   0.00000   0.00000   0.00000   0.00000
  85       18D-1        0.00000   0.00000   0.00000   0.00000   0.00000
  86       18D+2        0.00000  -0.32182   0.00000   0.00000   0.00000
  87       18D-2       -0.32182   0.00000   0.00000   0.00000   0.00000
  88       19D 0        0.00000   0.00000  -0.09700  -0.30412  -0.03083
  89       19D+1        0.00000   0.00000   0.00000   0.00000   0.00000
  90       19D-1        0.00000   0.00000   0.00000   0.00000   0.00000
  91       19D+2        0.00000  -0.30715   0.00000   0.00000   0.00000
  92       19D-2       -0.30715   0.00000   0.00000   0.00000   0.00000
  93       20D 0        0.00000   0.00000  -0.07196  -0.25052  -0.03538
  94       20D+1        0.00000   0.00000   0.00000   0.00000   0.00000
  95       20D-1        0.00000   0.00000   0.00000   0.00000   0.00000
  96       20D+2        0.00000  -0.24635   0.00000   0.00000   0.00000
  97       20D-2       -0.24635   0.00000   0.00000   0.00000   0.00000
  98       21D 0        0.00000   0.00000  -0.02368  -0.11790  -0.02454
  99       21D+1        0.00000   0.00000   0.00000   0.00000   0.00000
 100       21D-1        0.00000   0.00000   0.00000   0.00000   0.00000
 101       21D+2        0.00000  -0.10848   0.00000   0.00000   0.00000
 102       21D-2       -0.10848   0.00000   0.00000   0.00000   0.00000
                          31        32        33        34        35
                           V         V         V         V         V
     Eigenvalues --    -0.02793  -0.02793  -0.00607   0.02056   0.02487
   1 1   Co 1S          0.00000   0.00000  -0.00342   0.00310  -0.00093
   2        2S          0.00000   0.00000  -0.00543   0.00489  -0.00147
   3        3S          0.00000   0.00000  -0.00218   0.00206  -0.00061
   4        4S          0.00000   0.00000   0.01713  -0.01582   0.00471
   5        5S          0.00000   0.00000   0.03091  -0.02714   0.00815
   6        6S          0.00000   0.00000  -0.05852   0.04950  -0.01468
   7        7S          0.00000   0.00000  -0.06001   0.06326  -0.02040
   8        8S          0.00000   0.00000   0.04359  -0.09844   0.01872
   9        9S          0.00000   0.00000   0.09099   0.00241   0.83644
  10       10S          0.00000   0.00000  -0.44718   3.24506  -0.76393
  11       11PX         0.03432  -0.00005   0.00000   0.00000   0.00000
  12       11PY         0.00005   0.03432   0.00000   0.00000   0.00000
  13       11PZ         0.00000   0.00000   0.03174   0.00919  -0.02745
  14       12PX         0.00895  -0.00001   0.00000   0.00000   0.00000
  15       12PY         0.00001   0.00895   0.00000   0.00000   0.00000
  16       12PZ         0.00000   0.00000   0.00857   0.00230  -0.00691
  17       13PX        -0.04476   0.00006   0.00000   0.00000   0.00000
  18       13PY        -0.00006  -0.04476   0.00000   0.00000   0.00000
  19       13PZ         0.00000   0.00000  -0.04258  -0.01163   0.03498
  20       14PX        -0.08416   0.00011   0.00000   0.00000   0.00000
  21       14PY        -0.00011  -0.08416   0.00000   0.00000   0.00000
  22       14PZ         0.00000   0.00000  -0.07742  -0.02420   0.07166
  23       15PX        -0.00261   0.00000   0.00000   0.00000   0.00000
  24       15PY         0.00000  -0.00261   0.00000   0.00000   0.00000
  25       15PZ         0.00000   0.00000  -0.00283   0.00338  -0.00656
  26       16PX         0.19468  -0.00026   0.00000   0.00000   0.00000
  27       16PY         0.00026   0.19468   0.00000   0.00000   0.00000
  28       16PZ         0.00000   0.00000   0.16107   0.06528  -0.14154
  29       17PX         0.41052  -0.00054   0.00000   0.00000   0.00000
  30       17PY         0.00054   0.41052   0.00000   0.00000   0.00000
  31       17PZ         0.00000   0.00000   0.45216   0.47531  -0.64414
  32       18D 0        0.00000   0.00000  -0.00589  -0.01067  -0.02300
  33       18D+1       -0.02223   0.00003   0.00000   0.00000   0.00000
  34       18D-1       -0.00003  -0.02223   0.00000   0.00000   0.00000
  35       18D+2        0.00000   0.00000   0.00000   0.00000   0.00000
  36       18D-2        0.00000   0.00000   0.00000   0.00000   0.00000
  37       19D 0        0.00000   0.00000  -0.00449  -0.00898  -0.02270
  38       19D+1       -0.02136   0.00003   0.00000   0.00000   0.00000
  39       19D-1       -0.00003  -0.02136   0.00000   0.00000   0.00000
  40       19D+2        0.00000   0.00000   0.00000   0.00000   0.00000
  41       19D-2        0.00000   0.00000   0.00000   0.00000   0.00000
  42       20D 0        0.00000   0.00000  -0.00613  -0.01481  -0.01156
  43       20D+1       -0.01183   0.00002   0.00000   0.00000   0.00000
  44       20D-1       -0.00002  -0.01183   0.00000   0.00000   0.00000
  45       20D+2        0.00000   0.00000   0.00000   0.00000   0.00000
  46       20D-2        0.00000   0.00000   0.00000   0.00000   0.00000
  47       21D 0        0.00000   0.00000  -0.01017   0.01496   0.02838
  48       21D+1       -0.02880   0.00004   0.00000   0.00000   0.00000
  49       21D-1       -0.00004  -0.02880   0.00000   0.00000   0.00000
  50       21D+2        0.00000   0.00000   0.00000   0.00000   0.00000
  51       21D-2        0.00000   0.00000   0.00000   0.00000   0.00000
  52 2   Co 1S          0.00000   0.00000  -0.00342  -0.00310  -0.00093
  53        2S          0.00000   0.00000  -0.00543  -0.00489  -0.00147
  54        3S          0.00000   0.00000  -0.00218  -0.00206  -0.00061
  55        4S          0.00000   0.00000   0.01713   0.01582   0.00471
  56        5S          0.00000   0.00000   0.03091   0.02714   0.00815
  57        6S          0.00000   0.00000  -0.05852  -0.04950  -0.01468
  58        7S          0.00000   0.00000  -0.06001  -0.06326  -0.02040
  59        8S          0.00000   0.00000   0.04359   0.09844   0.01872
  60        9S          0.00000   0.00000   0.09099  -0.00241   0.83644
  61       10S          0.00000   0.00000  -0.44718  -3.24506  -0.76393
  62       11PX         0.03432  -0.00005   0.00000   0.00000   0.00000
  63       11PY         0.00005   0.03432   0.00000   0.00000   0.00000
  64       11PZ         0.00000   0.00000  -0.03174   0.00919   0.02745
  65       12PX         0.00895  -0.00001   0.00000   0.00000   0.00000
  66       12PY         0.00001   0.00895   0.00000   0.00000   0.00000
  67       12PZ         0.00000   0.00000  -0.00857   0.00230   0.00691
  68       13PX        -0.04476   0.00006   0.00000   0.00000   0.00000
  69       13PY        -0.00006  -0.04476   0.00000   0.00000   0.00000
  70       13PZ         0.00000   0.00000   0.04258  -0.01163  -0.03498
  71       14PX        -0.08416   0.00011   0.00000   0.00000   0.00000
  72       14PY        -0.00011  -0.08416   0.00000   0.00000   0.00000
  73       14PZ         0.00000   0.00000   0.07742  -0.02420  -0.07166
  74       15PX        -0.00261   0.00000   0.00000   0.00000   0.00000
  75       15PY         0.00000  -0.00261   0.00000   0.00000   0.00000
  76       15PZ         0.00000   0.00000   0.00283   0.00338   0.00656
  77       16PX         0.19468  -0.00026   0.00000   0.00000   0.00000
  78       16PY         0.00026   0.19468   0.00000   0.00000   0.00000
  79       16PZ         0.00000   0.00000  -0.16107   0.06528   0.14154
  80       17PX         0.41052  -0.00054   0.00000   0.00000   0.00000
  81       17PY         0.00054   0.41052   0.00000   0.00000   0.00000
  82       17PZ         0.00000   0.00000  -0.45216   0.47531   0.64414
  83       18D 0        0.00000   0.00000  -0.00589   0.01067  -0.02300
  84       18D+1        0.02223  -0.00003   0.00000   0.00000   0.00000
  85       18D-1        0.00003   0.02223   0.00000   0.00000   0.00000
  86       18D+2        0.00000   0.00000   0.00000   0.00000   0.00000
  87       18D-2        0.00000   0.00000   0.00000   0.00000   0.00000
  88       19D 0        0.00000   0.00000  -0.00449   0.00898  -0.02270
  89       19D+1        0.02136  -0.00003   0.00000   0.00000   0.00000
  90       19D-1        0.00003   0.02136   0.00000   0.00000   0.00000
  91       19D+2        0.00000   0.00000   0.00000   0.00000   0.00000
  92       19D-2        0.00000   0.00000   0.00000   0.00000   0.00000
  93       20D 0        0.00000   0.00000  -0.00613   0.01481  -0.01156
  94       20D+1        0.01183  -0.00002   0.00000   0.00000   0.00000
  95       20D-1        0.00002   0.01183   0.00000   0.00000   0.00000
  96       20D+2        0.00000   0.00000   0.00000   0.00000   0.00000
  97       20D-2        0.00000   0.00000   0.00000   0.00000   0.00000
  98       21D 0        0.00000   0.00000  -0.01017  -0.01496   0.02838
  99       21D+1        0.02880  -0.00004   0.00000   0.00000   0.00000
 100       21D-1        0.00004   0.02880   0.00000   0.00000   0.00000
 101       21D+2        0.00000   0.00000   0.00000   0.00000   0.00000
 102       21D-2        0.00000   0.00000   0.00000   0.00000   0.00000
                          36        37        38        39        40
                           V         V         V         V         V
     Eigenvalues --     0.04742   0.04742   0.11489   0.16194   0.18679
   1 1   Co 1S          0.00000   0.00000  -0.00371  -0.00648   0.00000
   2        2S          0.00000   0.00000  -0.00577  -0.00996   0.00000
   3        3S          0.00000   0.00000  -0.00269  -0.00509   0.00000
   4        4S          0.00000   0.00000   0.01972   0.03579   0.00000
   5        5S          0.00000   0.00000   0.03057   0.05049   0.00000
   6        6S          0.00000   0.00000  -0.05238  -0.08274   0.00000
   7        7S          0.00000   0.00000  -0.09597  -0.19258   0.00000
   8        8S          0.00000   0.00000   0.27980   1.39844   0.00000
   9        9S          0.00000   0.00000  12.32331  -1.11790   0.00000
  10       10S          0.00000   0.00000   2.29759   0.32296   0.00000
  11       11PX         0.00014   0.02025   0.00000   0.00000   0.04949
  12       11PY         0.02025  -0.00014   0.00000   0.00000  -0.00003
  13       11PZ         0.00000   0.00000  -0.00697   0.03571   0.00000
  14       12PX         0.00003   0.00484   0.00000   0.00000   0.01695
  15       12PY         0.00484  -0.00003   0.00000   0.00000  -0.00001
  16       12PZ         0.00000   0.00000  -0.00107   0.01083   0.00000
  17       13PX        -0.00017  -0.02491   0.00000   0.00000  -0.08102
  18       13PY        -0.02491   0.00017   0.00000   0.00000   0.00005
  19       13PZ         0.00000   0.00000   0.00633  -0.05302   0.00000
  20       14PX        -0.00037  -0.05361   0.00000   0.00000  -0.08651
  21       14PY        -0.05361   0.00037   0.00000   0.00000   0.00005
  22       14PZ         0.00000   0.00000   0.02509  -0.07817   0.00000
  23       15PX         0.00004   0.00547   0.00000   0.00000  -0.08468
  24       15PY         0.00547  -0.00004   0.00000   0.00000   0.00005
  25       15PZ         0.00000   0.00000  -0.02110  -0.02165   0.00000
  26       16PX         0.00055   0.07905   0.00000   0.00000   0.86603
  27       16PY         0.07905  -0.00055   0.00000   0.00000  -0.00051
  28       16PZ         0.00000   0.00000   0.34235   0.47052   0.00000
  29       17PX         0.00892   1.28748   0.00000   0.00000  -0.63972
  30       17PY         1.28748  -0.00892   0.00000   0.00000   0.00038
  31       17PZ         0.00000   0.00000   6.02750  -1.02265   0.00000
  32       18D 0        0.00000   0.00000   0.05473  -0.04848   0.00000
  33       18D+1        0.00043   0.06146   0.00000   0.00000  -0.04307
  34       18D-1        0.06146  -0.00043   0.00000   0.00000   0.00003
  35       18D+2        0.00000   0.00000   0.00000   0.00000   0.00000
  36       18D-2        0.00000   0.00000   0.00000   0.00000   0.00000
  37       19D 0        0.00000   0.00000   0.05425  -0.04894   0.00000
  38       19D+1        0.00042   0.05988   0.00000   0.00000  -0.03656
  39       19D-1        0.05988  -0.00042   0.00000   0.00000   0.00002
  40       19D+2        0.00000   0.00000   0.00000   0.00000   0.00000
  41       19D-2        0.00000   0.00000   0.00000   0.00000   0.00000
  42       20D 0        0.00000   0.00000   0.03051  -0.00805   0.00000
  43       20D+1        0.00020   0.02907   0.00000   0.00000  -0.03665
  44       20D-1        0.02907  -0.00020   0.00000   0.00000   0.00002
  45       20D+2        0.00000   0.00000   0.00000   0.00000   0.00000
  46       20D-2        0.00000   0.00000   0.00000   0.00000   0.00000
  47       21D 0        0.00000   0.00000   0.30688  -0.28830   0.00000
  48       21D+1        0.00003   0.00409   0.00000   0.00000   0.03182
  49       21D-1        0.00409  -0.00003   0.00000   0.00000  -0.00002
  50       21D+2        0.00000   0.00000   0.00000   0.00000   0.00000
  51       21D-2        0.00000   0.00000   0.00000   0.00000   0.00000
  52 2   Co 1S          0.00000   0.00000   0.00371  -0.00648   0.00000
  53        2S          0.00000   0.00000   0.00577  -0.00996   0.00000
  54        3S          0.00000   0.00000   0.00269  -0.00509   0.00000
  55        4S          0.00000   0.00000  -0.01972   0.03579   0.00000
  56        5S          0.00000   0.00000  -0.03057   0.05049   0.00000
  57        6S          0.00000   0.00000   0.05238  -0.08274   0.00000
  58        7S          0.00000   0.00000   0.09597  -0.19258   0.00000
  59        8S          0.00000   0.00000  -0.27980   1.39844   0.00000
  60        9S          0.00000   0.00000 -12.32331  -1.11790   0.00000
  61       10S          0.00000   0.00000  -2.29759   0.32296   0.00000
  62       11PX        -0.00014  -0.02025   0.00000   0.00000   0.04949
  63       11PY        -0.02025   0.00014   0.00000   0.00000  -0.00003
  64       11PZ         0.00000   0.00000  -0.00697  -0.03571   0.00000
  65       12PX        -0.00003  -0.00484   0.00000   0.00000   0.01695
  66       12PY        -0.00484   0.00003   0.00000   0.00000  -0.00001
  67       12PZ         0.00000   0.00000  -0.00107  -0.01083   0.00000
  68       13PX         0.00017   0.02491   0.00000   0.00000  -0.08102
  69       13PY         0.02491  -0.00017   0.00000   0.00000   0.00005
  70       13PZ         0.00000   0.00000   0.00633   0.05302   0.00000
  71       14PX         0.00037   0.05361   0.00000   0.00000  -0.08651
  72       14PY         0.05361  -0.00037   0.00000   0.00000   0.00005
  73       14PZ         0.00000   0.00000   0.02509   0.07817   0.00000
  74       15PX        -0.00004  -0.00547   0.00000   0.00000  -0.08468
  75       15PY        -0.00547   0.00004   0.00000   0.00000   0.00005
  76       15PZ         0.00000   0.00000  -0.02110   0.02165   0.00000
  77       16PX        -0.00055  -0.07905   0.00000   0.00000   0.86603
  78       16PY        -0.07905   0.00055   0.00000   0.00000  -0.00051
  79       16PZ         0.00000   0.00000   0.34235  -0.47052   0.00000
  80       17PX        -0.00892  -1.28748   0.00000   0.00000  -0.63972
  81       17PY        -1.28748   0.00892   0.00000   0.00000   0.00038
  82       17PZ         0.00000   0.00000   6.02750   1.02265   0.00000
  83       18D 0        0.00000   0.00000  -0.05473  -0.04848   0.00000
  84       18D+1        0.00043   0.06146   0.00000   0.00000   0.04307
  85       18D-1        0.06146  -0.00043   0.00000   0.00000  -0.00003
  86       18D+2        0.00000   0.00000   0.00000   0.00000   0.00000
  87       18D-2        0.00000   0.00000   0.00000   0.00000   0.00000
  88       19D 0        0.00000   0.00000  -0.05425  -0.04894   0.00000
  89       19D+1        0.00042   0.05988   0.00000   0.00000   0.03656
  90       19D-1        0.05988  -0.00042   0.00000   0.00000  -0.00002
  91       19D+2        0.00000   0.00000   0.00000   0.00000   0.00000
  92       19D-2        0.00000   0.00000   0.00000   0.00000   0.00000
  93       20D 0        0.00000   0.00000  -0.03051  -0.00805   0.00000
  94       20D+1        0.00020   0.02907   0.00000   0.00000   0.03665
  95       20D-1        0.02907  -0.00020   0.00000   0.00000  -0.00002
  96       20D+2        0.00000   0.00000   0.00000   0.00000   0.00000
  97       20D-2        0.00000   0.00000   0.00000   0.00000   0.00000
  98       21D 0        0.00000   0.00000  -0.30688  -0.28830   0.00000
  99       21D+1        0.00003   0.00409   0.00000   0.00000  -0.03182
 100       21D-1        0.00409  -0.00003   0.00000   0.00000   0.00002
 101       21D+2        0.00000   0.00000   0.00000   0.00000   0.00000
 102       21D-2        0.00000   0.00000   0.00000   0.00000   0.00000
                          41        42        43        44        45
                           V         V         V         V         V
     Eigenvalues --     0.18679   0.20875   0.22182   0.25281   0.25281
   1 1   Co 1S          0.00000   0.00598   0.00778   0.00000   0.00000
   2        2S          0.00000   0.00911   0.01198   0.00000   0.00000
   3        3S          0.00000   0.00497   0.00604   0.00000   0.00000
   4        4S          0.00000  -0.03402  -0.04275   0.00000   0.00000
   5        5S          0.00000  -0.04415  -0.06114   0.00000   0.00000
   6        6S          0.00000   0.06653   0.10096   0.00000   0.00000
   7        7S          0.00000   0.20704   0.22860   0.00000   0.00000
   8        8S          0.00000  -1.08749  -1.15968   0.00000   0.00000
   9        9S          0.00000   1.50989   8.48992   0.00000   0.00000
  10       10S          0.00000  -0.54624  -1.09180   0.00000   0.00000
  11       11PX         0.00003   0.00000   0.00000   0.00000   0.00000
  12       11PY         0.04949   0.00000   0.00000   0.00000   0.00000
  13       11PZ         0.00000   0.04150   0.02302   0.00000   0.00000
  14       12PX         0.00001   0.00000   0.00000   0.00000   0.00000
  15       12PY         0.01695   0.00000   0.00000   0.00000   0.00000
  16       12PZ         0.00000   0.01365   0.00915   0.00000   0.00000
  17       13PX        -0.00005   0.00000   0.00000   0.00000   0.00000
  18       13PY        -0.08102   0.00000   0.00000   0.00000   0.00000
  19       13PZ         0.00000  -0.06589  -0.04248   0.00000   0.00000
  20       14PX        -0.00005   0.00000   0.00000   0.00000   0.00000
  21       14PY        -0.08651   0.00000   0.00000   0.00000   0.00000
  22       14PZ         0.00000  -0.07985  -0.02980   0.00000   0.00000
  23       15PX        -0.00005   0.00000   0.00000   0.00000   0.00000
  24       15PY        -0.08468   0.00000   0.00000   0.00000   0.00000
  25       15PZ         0.00000  -0.05807  -0.06904   0.00000   0.00000
  26       16PX         0.00051   0.00000   0.00000   0.00000   0.00000
  27       16PY         0.86603   0.00000   0.00000   0.00000   0.00000
  28       16PZ         0.00000   0.72015   1.06811   0.00000   0.00000
  29       17PX        -0.00038   0.00000   0.00000   0.00000   0.00000
  30       17PY        -0.63972   0.00000   0.00000   0.00000   0.00000
  31       17PZ         0.00000  -0.90873   2.42066   0.00000   0.00000
  32       18D 0        0.00000   0.03117   0.02418   0.00000   0.00000
  33       18D+1       -0.00003   0.00000   0.00000   0.00000   0.00000
  34       18D-1       -0.04307   0.00000   0.00000   0.00000   0.00000
  35       18D+2        0.00000   0.00000   0.00000   0.00000  -0.13564
  36       18D-2        0.00000   0.00000   0.00000  -0.13564   0.00000
  37       19D 0        0.00000   0.02578   0.01951   0.00000   0.00000
  38       19D+1       -0.00002   0.00000   0.00000   0.00000   0.00000
  39       19D-1       -0.03656   0.00000   0.00000   0.00000   0.00000
  40       19D+2        0.00000   0.00000   0.00000   0.00000  -0.10931
  41       19D-2        0.00000   0.00000   0.00000  -0.10931   0.00000
  42       20D 0        0.00000   0.02068   0.02281   0.00000   0.00000
  43       20D+1       -0.00002   0.00000   0.00000   0.00000   0.00000
  44       20D-1       -0.03665   0.00000   0.00000   0.00000   0.00000
  45       20D+2        0.00000   0.00000   0.00000   0.00000  -0.14867
  46       20D-2        0.00000   0.00000   0.00000  -0.14867   0.00000
  47       21D 0        0.00000  -0.19686   0.17574   0.00000   0.00000
  48       21D+1        0.00002   0.00000   0.00000   0.00000   0.00000
  49       21D-1        0.03182   0.00000   0.00000   0.00000   0.00000
  50       21D+2        0.00000   0.00000   0.00000   0.00000   0.61901
  51       21D-2        0.00000   0.00000   0.00000   0.61901   0.00000
  52 2   Co 1S          0.00000   0.00598  -0.00778   0.00000   0.00000
  53        2S          0.00000   0.00911  -0.01198   0.00000   0.00000
  54        3S          0.00000   0.00497  -0.00604   0.00000   0.00000
  55        4S          0.00000  -0.03402   0.04275   0.00000   0.00000
  56        5S          0.00000  -0.04415   0.06114   0.00000   0.00000
  57        6S          0.00000   0.06653  -0.10096   0.00000   0.00000
  58        7S          0.00000   0.20704  -0.22860   0.00000   0.00000
  59        8S          0.00000  -1.08749   1.15968   0.00000   0.00000
  60        9S          0.00000   1.50989  -8.48992   0.00000   0.00000
  61       10S          0.00000  -0.54623   1.09180   0.00000   0.00000
  62       11PX         0.00003   0.00000   0.00000   0.00000   0.00000
  63       11PY         0.04949   0.00000   0.00000   0.00000   0.00000
  64       11PZ         0.00000  -0.04150   0.02302   0.00000   0.00000
  65       12PX         0.00001   0.00000   0.00000   0.00000   0.00000
  66       12PY         0.01695   0.00000   0.00000   0.00000   0.00000
  67       12PZ         0.00000  -0.01365   0.00915   0.00000   0.00000
  68       13PX        -0.00005   0.00000   0.00000   0.00000   0.00000
  69       13PY        -0.08102   0.00000   0.00000   0.00000   0.00000
  70       13PZ         0.00000   0.06589  -0.04248   0.00000   0.00000
  71       14PX        -0.00005   0.00000   0.00000   0.00000   0.00000
  72       14PY        -0.08651   0.00000   0.00000   0.00000   0.00000
  73       14PZ         0.00000   0.07985  -0.02980   0.00000   0.00000
  74       15PX        -0.00005   0.00000   0.00000   0.00000   0.00000
  75       15PY        -0.08468   0.00000   0.00000   0.00000   0.00000
  76       15PZ         0.00000   0.05807  -0.06904   0.00000   0.00000
  77       16PX         0.00051   0.00000   0.00000   0.00000   0.00000
  78       16PY         0.86603   0.00000   0.00000   0.00000   0.00000
  79       16PZ         0.00000  -0.72015   1.06811   0.00000   0.00000
  80       17PX        -0.00038   0.00000   0.00000   0.00000   0.00000
  81       17PY        -0.63972   0.00000   0.00000   0.00000   0.00000
  82       17PZ         0.00000   0.90873   2.42066   0.00000   0.00000
  83       18D 0        0.00000   0.03117  -0.02418   0.00000   0.00000
  84       18D+1        0.00003   0.00000   0.00000   0.00000   0.00000
  85       18D-1        0.04307   0.00000   0.00000   0.00000   0.00000
  86       18D+2        0.00000   0.00000   0.00000   0.00000  -0.13564
  87       18D-2        0.00000   0.00000   0.00000  -0.13564   0.00000
[...]
                                            0.0000  0.0000  0.0000  0.0000  0.1198
                                            0.0035 -0.0002  0.0012  0.0000  0.0000
                                            0.0000  0.0000  0.0000  0.0000  0.0000
                                            0.0000  0.0000  0.0000  0.0000  0.0000
                                            0.0000  0.0000  0.0000  0.0000 -0.9924
                                           -0.0225 -0.0172 -0.0005  0.0000  0.0000
                                            0.0000  0.0000  0.0000  0.0000  0.0000
                                            0.0000
   102. (0.00237) BD*( 4)Co   1 -Co   2  
                ( 50.00%)   0.7071*Co   1 s(  0.03%)p 5.76(  0.19%)d99.99( 99.78%)
                                            0.0000  0.0000  0.0000  0.0052 -0.0172
                                            0.0007 -0.0004 -0.0004  0.0000  0.0000
                                            0.0000  0.0000  0.0000  0.0000  0.0000
                                            0.0000  0.0000  0.0000  0.0000  0.0000
                                            0.0000  0.0000  0.0000  0.0000  0.0000
                                            0.0000 -0.0424 -0.0079 -0.0002  0.0009
                                           -0.0002  0.0000  0.0000  0.0000  0.0000
                                            0.0000  0.0000  0.0000  0.0000  0.0000
                                            0.0000  0.0000  0.0000  0.0000  0.0000
                                            0.0000  0.0000 -0.9989 -0.0024 -0.0081
                                            0.0006
                ( 50.00%)  -0.7071*Co   2 s(  0.03%)p 5.76(  0.19%)d99.99( 99.78%)
                                            0.0000  0.0000  0.0000  0.0052 -0.0172
                                            0.0007 -0.0004 -0.0004  0.0000  0.0000
                                            0.0000  0.0000  0.0000  0.0000  0.0000
                                            0.0000  0.0000  0.0000  0.0000  0.0000
                                            0.0000  0.0000  0.0000  0.0000  0.0000
                                            0.0000  0.0424  0.0079  0.0002 -0.0009
                                            0.0002  0.0000  0.0000  0.0000  0.0000
                                            0.0000  0.0000  0.0000  0.0000  0.0000
                                            0.0000  0.0000  0.0000  0.0000  0.0000
                                            0.0000  0.0000 -0.9989 -0.0024 -0.0081
                                            0.0006


 NHO Directionality and "Bond Bending" (deviations from line of nuclear centers)

         [Thresholds for printing:  angular deviation  >  1.0 degree]
                                    hybrid p-character > 25.0%
                                    orbital occupancy  >  0.10e

                                Line of Centers        Hybrid 1              Hybrid 2
                                ---------------  -------------------   ------------------
                NBO               Theta   Phi    Theta   Phi    Dev    Theta   Phi    Dev
 ========================================================================================
    None exceeding thresholds


 Second Order Perturbation Theory Analysis of Fock Matrix in NBO Basis

     Threshold for printing:   0.25 kcal/mol
                                                                              E(2)  E(j)-E(i) F(i,j)
         Donor NBO (i)                     Acceptor NBO (j)                 kcal/mol   a.u.    a.u. 
 ===================================================================================================

 within unit  1
   6. CR (   2)Co   1                /102. BD*(   4)Co   1 -Co   2            0.55   31.00    0.164
   7. CR (   3)Co   1                / 25. LP*(   3)Co   1                    0.36    6.16    0.060
   7. CR (   3)Co   1                / 30. LP*(   3)Co   2                    1.15    6.16    0.106
   7. CR (   3)Co   1                /102. BD*(   4)Co   1 -Co   2            1.94    5.45    0.130
   9. CR (   5)Co   1                /100. BD*(   2)Co   1 -Co   2            0.31    2.31    0.034
  11. CR (   7)Co   1                /101. BD*(   3)Co   1 -Co   2            0.31    2.31    0.034
  13. CR (   9)Co   1                / 99. BD*(   1)Co   1 -Co   2            0.93    2.47    0.060
  13. CR (   9)Co   1                /102. BD*(   4)Co   1 -Co   2            0.94    2.32    0.059
  15. CR (   2)Co   2                /102. BD*(   4)Co   1 -Co   2            0.55   31.00    0.164
  16. CR (   3)Co   2                / 25. LP*(   3)Co   1                    1.15    6.16    0.106
  16. CR (   3)Co   2                / 30. LP*(   3)Co   2                    0.36    6.16    0.060
  16. CR (   3)Co   2                /102. BD*(   4)Co   1 -Co   2            1.94    5.45    0.130
  18. CR (   5)Co   2                /100. BD*(   2)Co   1 -Co   2            0.31    2.31    0.034
  20. CR (   7)Co   2                /101. BD*(   3)Co   1 -Co   2            0.31    2.31    0.034
  22. CR (   9)Co   2                / 99. BD*(   1)Co   1 -Co   2            0.93    2.47    0.060
  22. CR (   9)Co   2                /102. BD*(   4)Co   1 -Co   2            0.94    2.32    0.059


 Natural Bond Orbitals (Summary):

                                                            Principal Delocalizations
           NBO                        Occupancy    Energy   (geminal,vicinal,remote)
 ====================================================================================
 Molecular unit  1  (Co2)
     1. BD (   1)Co   1 -Co   2          1.00000    -0.31380   
     2. BD (   2)Co   1 -Co   2          1.00000    -0.23174   
     3. BD (   3)Co   1 -Co   2          1.00000    -0.23174   
     4. BD (   4)Co   1 -Co   2          1.00000    -0.29580   
     5. CR (   1)Co   1                  1.00000  -277.15129   
     6. CR (   2)Co   1                  1.00000   -31.10821  102(g)
     7. CR (   3)Co   1                  0.99905    -5.56243  102(g),30(v),25(g)
     8. CR (   4)Co   1                  1.00000   -28.34832   
     9. CR (   5)Co   1                  0.99976    -2.37212  100(g)
    10. CR (   6)Co   1                  1.00000   -28.34832   
    11. CR (   7)Co   1                  0.99976    -2.37212  101(g)
    12. CR (   8)Co   1                  1.00000   -28.38763   
    13. CR (   9)Co   1                  0.99871    -2.43144  102(g),99(g)
    14. CR (   1)Co   2                  1.00000  -277.15129   
    15. CR (   2)Co   2                  1.00000   -31.10821  102(g)
    16. CR (   3)Co   2                  0.99905    -5.56243  102(g),25(v),30(g)
    17. CR (   4)Co   2                  1.00000   -28.34832   
    18. CR (   5)Co   2                  0.99976    -2.37212  100(g)
    19. CR (   6)Co   2                  1.00000   -28.34832   
    20. CR (   7)Co   2                  0.99976    -2.37212  101(g)
    21. CR (   8)Co   2                  1.00000   -28.38763   
    22. CR (   9)Co   2                  0.99871    -2.43144  102(g),99(g)
    23. LP (   1)Co   1                  0.99998    -0.18859   
    24. LP (   2)Co   1                  0.99998    -0.18859   
    25. LP*(   3)Co   1                  0.00041     0.59515   
    26. LP*(   4)Co   1                  0.00005     1.05283   
    27. LP*(   5)Co   1                  0.00002     0.34783   
    28. LP (   1)Co   2                  0.99998    -0.18859   
    29. LP (   2)Co   2                  0.99998    -0.18859   
    30. LP*(   3)Co   2                  0.00041     0.59515   
    31. LP*(   4)Co   2                  0.00005     1.05283   
    32. LP*(   5)Co   2                  0.00002     0.34783   
    33. RY*(   1)Co   1                  0.00002     0.34783   
    34. RY*(   2)Co   1                  0.00002     0.91869   
    35. RY*(   3)Co   1                  0.00002     0.91869   
    36. RY*(   4)Co   1                  0.00000     2.26944   
    37. RY*(   5)Co   1                  0.00000     1.68153   
    38. RY*(   6)Co   1                  0.00000     0.30960   
    39. RY*(   7)Co   1                  0.00000    10.71016   
    40. RY*(   8)Co   1                  0.00000    31.07864   
    41. RY*(   9)Co   1                  0.00000     1.09825   
    42. RY*(  10)Co   1                  0.00000     1.68153   
    43. RY*(  11)Co   1                  0.00000     0.30960   
    44. RY*(  12)Co   1                  0.00000    10.71016   
    45. RY*(  13)Co   1                  0.00000    31.07864   
    46. RY*(  14)Co   1                  0.00000    51.77935   
    47. RY*(  15)Co   1                  0.00001     1.54428   
    48. RY*(  16)Co   1                  0.00000     0.54265   
    49. RY*(  17)Co   1                  0.00000    10.39005   
    50. RY*(  18)Co   1                  0.00000    31.04537   
    51. RY*(  19)Co   1                  0.00000   769.67915   
    52. RY*(  20)Co   1                  0.00000     0.98423   
    53. RY*(  21)Co   1                  0.00000     6.18536   
    54. RY*(  22)Co   1                  0.00000     0.62166   
    55. RY*(  23)Co   1                  0.00000     1.48932   
    56. RY*(  24)Co   1                  0.00000     6.17125   
    57. RY*(  25)Co   1                  0.00000     0.62166   
    58. RY*(  26)Co   1                  0.00000     1.48932   
    59. RY*(  27)Co   1                  0.00000     6.17125   
    60. RY*(  28)Co   1                  0.00000   163.12283   
    61. RY*(  29)Co   1                  0.00000     0.98423   
    62. RY*(  30)Co   1                  0.00000     6.18536   
    63. RY*(  31)Co   1                  0.00000     0.85119   
    64. RY*(  32)Co   1                  0.00000     1.74232   
    65. RY*(  33)Co   1                  0.00000     6.23144   
    66. RY*(   1)Co   2                  0.00002     0.34783   
    67. RY*(   2)Co   2                  0.00002     0.91869   
    68. RY*(   3)Co   2                  0.00002     0.91869   
    69. RY*(   4)Co   2                  0.00000     2.26944   
    70. RY*(   5)Co   2                  0.00000     1.68153   
    71. RY*(   6)Co   2                  0.00000     0.30960   
    72. RY*(   7)Co   2                  0.00000    10.71016   
    73. RY*(   8)Co   2                  0.00000    31.07864   
    74. RY*(   9)Co   2                  0.00000     1.09825   
    75. RY*(  10)Co   2                  0.00000     1.68153   
    76. RY*(  11)Co   2                  0.00000     0.30960   
    77. RY*(  12)Co   2                  0.00000    10.71016   
    78. RY*(  13)Co   2                  0.00000    31.07864   
    79. RY*(  14)Co   2                  0.00000    51.77936   
    80. RY*(  15)Co   2                  0.00001     1.54428   
    81. RY*(  16)Co   2                  0.00000     0.54265   
    82. RY*(  17)Co   2                  0.00000    10.39005   
    83. RY*(  18)Co   2                  0.00000    31.04537   
    84. RY*(  19)Co   2                  0.00000   769.67922   
    85. RY*(  20)Co   2                  0.00000     0.98423   
    86. RY*(  21)Co   2                  0.00000     6.18536   
    87. RY*(  22)Co   2                  0.00000     0.62166   
    88. RY*(  23)Co   2                  0.00000     1.48932   
    89. RY*(  24)Co   2                  0.00000     6.17125   
    90. RY*(  25)Co   2                  0.00000     0.62166   
    91. RY*(  26)Co   2                  0.00000     1.48932   
    92. RY*(  27)Co   2                  0.00000     6.17125   
    93. RY*(  28)Co   2                  0.00000   163.12276   
    94. RY*(  29)Co   2                  0.00000     0.98423   
    95. RY*(  30)Co   2                  0.00000     6.18536   
    96. RY*(  31)Co   2                  0.00000     0.85119   
    97. RY*(  32)Co   2                  0.00000     1.74232   
    98. RY*(  33)Co   2                  0.00000     6.23144   
    99. BD*(   1)Co   1 -Co   2          0.00118     0.03708   
   100. BD*(   2)Co   1 -Co   2          0.00044    -0.05941   
   101. BD*(   3)Co   1 -Co   2          0.00044    -0.05941   
   102. BD*(   4)Co   1 -Co   2          0.00237    -0.11247   
       -------------------------------
              Total Lewis   25.99446  ( 99.9787%)
        Valence non-Lewis    0.00537  (  0.0207%)
        Rydberg non-Lewis    0.00017  (  0.0006%)
       -------------------------------
            Total unit  1   26.00000  (100.0000%)
           Charge unit  1    1.00000
 Calling FoFJK, ICntrl=    100127 FMM=F ISym2X=0 I1Cent= 0 IOpClX= 1 NMat=1 NMatS=1 NMatT=0.
 Full mass-weighted force constant matrix:
 Low frequencies ---   -3.7406   -3.7405   -0.0100   -0.0065   -0.0060  456.2081
 Diagonal vibrational polarizability:
        0.0000000       0.0000000       0.0000000
 Harmonic frequencies (cm**-1), IR intensities (KM/Mole), Raman scattering
 activities (A**4/AMU), depolarization ratios for plane and unpolarized
 incident light, reduced masses (AMU), force constants (mDyne/A),
 and normal coordinates:
                     1
                     A
 Frequencies --   456.2081
 Red. masses --    58.9332
 Frc consts  --     7.2266
 IR Inten    --     0.0000
  Atom  AN      X      Y      Z
     1  27     0.00   0.00   0.71
     2  27     0.00   0.00  -0.71

 -------------------
 - Thermochemistry -
 -------------------
 Temperature   298.150 Kelvin.  Pressure   1.00000 Atm.
 Atom     1 has atomic number 27 and mass  58.93320
 Atom     2 has atomic number 27 and mass  58.93320
 Molecular mass:   117.86640 amu.
 Principal axes and moments of inertia in atomic units:
                           1         2         3
     Eigenvalues --     0.00000 375.97613 375.97613
           X            0.00000   0.00000   1.00000
           Y            0.00000   1.00000   0.00000
           Z            1.00000   0.00000   0.00000
 This molecule is a prolate symmetric top.
 Rotational symmetry number  2.
 Rotational temperature (Kelvin)      0.23037
 Rotational constant (GHZ):           4.800148
 Zero-point vibrational energy       2728.7 (Joules/Mol)
                                    0.65218 (Kcal/Mol)
 Warning -- explicit consideration of   1 degrees of freedom as
           vibrations may cause significant error
 Vibrational temperatures:    656.38
          (Kelvin)
 
 Zero-point correction=                           0.001039 (Hartree/Particle)
 Thermal correction to Energy=                    0.003658
 Thermal correction to Enthalpy=                  0.004603
 Thermal correction to Gibbs Free Energy=        -0.022964
 Sum of electronic and zero-point Energies=          -2765.337363
 Sum of electronic and thermal Energies=             -2765.334744
 Sum of electronic and thermal Enthalpies=           -2765.333800
 Sum of electronic and thermal Free Energies=        -2765.361366
 
                     E (Thermal)             CV                S
                      KCal/Mol        Cal/Mol-Kelvin    Cal/Mol-Kelvin
 Total                    2.296              6.315             58.018
 Electronic               0.000              0.000              2.183
 Translational            0.889              2.981             40.208
 Rotational               0.592              1.987             14.849
 Vibrational              0.814              1.347              0.777
 Vibration     1          0.814              1.347              0.777
                       Q            Log10(Q)             Ln(Q)
 Total Bot       0.365180D+11         10.562507         24.321072
 Total V=0       0.109789D+12         11.040560         25.421828
 Vib (Bot)       0.373997D+00         -0.427132         -0.983508
 Vib (Bot)    1  0.373997D+00         -0.427132         -0.983508
 Vib (V=0)       0.112440D+01          0.050920          0.117248
 Vib (V=0)    1  0.112440D+01          0.050920          0.117248
 Electronic      0.300000D+01          0.477121          1.098612
 Translational   0.502968D+08          7.701540         17.733452
 Rotational      0.647110D+03          2.810978          6.472516
 -------------------------------------------------------------------
 Center     Atomic                   Forces (Hartrees/Bohr)
 Number     Number              X              Y              Z
 -------------------------------------------------------------------
      1       27           0.000000000    0.000000000    0.000000642
      2       27           0.000000000    0.000000000   -0.000000642
 -------------------------------------------------------------------
 Cartesian Forces:  Max     0.000000642 RMS     0.000000371

 GradGradGradGradGradGradGradGradGradGradGradGradGradGradGradGradGradGrad
 Berny optimization.
 Internal  Forces:  Max     0.000000642 RMS     0.000000642
 Search for a local minimum.
 Step number   1 out of a maximum of    2
 All quantities printed in internal units (Hartrees-Bohrs-Radians)
 Second derivative matrix not updated -- analytic derivatives used.
 The second derivative matrix:
                          R1
           R1           0.23209
     Eigenvalues ---    0.23209
 Angle between quadratic step and forces=   0.00 degrees.
 Linear search not attempted -- first point.
 Iteration  1 RMS(Cart)=  0.00000196 RMS(Int)=  0.00000000
 Iteration  2 RMS(Cart)=  0.00000000 RMS(Int)=  0.00000000
 Variable       Old X    -DE/DX   Delta X   Delta X   Delta X     New X
                                 (Linear)    (Quad)   (Total)
    R1        3.57203   0.00000   0.00000   0.00000   0.00000   3.57203
         Item               Value     Threshold  Converged?
 Maximum Force            0.000001     0.000015     YES
 RMS     Force            0.000001     0.000010     YES
 Maximum Displacement     0.000001     0.000060     YES
 RMS     Displacement     0.000002     0.000040     YES
 Predicted change in Energy=-8.881731D-13
 Optimization completed.
    -- Stationary point found.
                           ----------------------------
                           !   Optimized Parameters   !
                           ! (Angstroms and Degrees)  !
 --------------------------                            --------------------------
 ! Name  Definition              Value          Derivative Info.                !
 --------------------------------------------------------------------------------
 ! R1    R(1,2)                  1.8902         -DE/DX =    0.0                 !
 --------------------------------------------------------------------------------
 GradGradGradGradGradGradGradGradGradGradGradGradGradGradGradGradGradGrad

 1|1|UNPC-Z-NASIRI|Freq|UB3LYP|6-311++G|Co2(3)|NASIRI|06-Dec-2020|0||#N
  Geom=AllCheck Guess=TCheck SCRF=Check GenChk UB3LYP/6-311++G Freq||Ti
 tle||0,3|Co,0.,0.,0.0548814915|Co,0.,0.,1.9451185085||Version=IA32W-G0
 9RevA.02|HF=-2765.3384023|S2=2.036584|S2-1=0.|S2A=2.000603|RMSD=2.178e
 -010|RMSF=3.707e-007|ZeroPoint=0.0010393|Thermal=0.0036584|Dipole=0.,0
 .,0.|DipoleDeriv=0.,0.,0.,0.,0.,0.,0.,0.,0.0000043,0.,0.,0.,0.,0.,0.,0
 .,0.,-0.0000043|Polar=67.9991359,0.,67.9991359,-0.0000068,0.0000011,10
 8.7162616|PG=D*H [C*(Co1.Co1)]|NImag=0||-0.00001560,0.,-0.00001560,0.,
 0.,0.23208517,0.00001560,0.,0.,-0.00001560,0.,0.00001560,0.,0.,-0.0000
 1560,0.,0.,-0.23208517,0.,0.,0.23208517||0.,0.,-0.00000064,0.,0.,0.000
 00064|||@


 SCIENCE IS LONG AND LIFE IS SHORT.

                     DON MOSER IN THE FEBRUARY 1979 SMITHSONIAN
 Job cpu time:  0 days  0 hours  1 minutes 33.0 seconds.
 File lengths (MBytes):  RWF=     14 Int=      0 D2E=      0 Chk=      2 Scr=      1
 Normal termination of Gaussian 09 at Sun Dec 06 20:34:37 2020.
