 Entering Gaussian System, Link 0=g09.exe
 Input=Co2_5.gjf
 Output=Co2_5.out
 Initial command:
 E:\G09W\l1.exe .\gxx.inp Co2_5.out /scrdir=.\
 Entering Link 1 = E:\G09W\l1.exe PID=      6944.
  
 Copyright (c) 1988,1990,1992,1993,1995,1998,2003,2009, Gaussian, Inc.
                  All Rights Reserved.
  
 This is part of the Gaussian(R) 09 program.  It is based on
 the Gaussian(R) 03 system (copyright 2003, Gaussian, Inc.),
 the Gaussian(R) 98 system (copyright 1998, Gaussian, Inc.),
 the Gaussian(R) 94 system (copyright 1995, Gaussian, Inc.),
 the Gaussian 92(TM) system (copyright 1992, Gaussian, Inc.),
 the Gaussian 90(TM) system (copyright 1990, Gaussian, Inc.),
 the Gaussian 88(TM) system (copyright 1988, Gaussian, Inc.),
 the Gaussian 86(TM) system (copyright 1986, Carnegie Mellon
 University), and the Gaussian 82(TM) system (copyright 1983,
 Carnegie Mellon University). Gaussian is a federally registered
 trademark of Gaussian, Inc.
  
 This software contains proprietary and confidential information,
 including trade secrets, belonging to Gaussian, Inc.
  
 This software is provided under written license and may be
 used, copied, transmitted, or stored only in accord with that
 written license.
  
 The following legend is applicable only to US Government
 contracts under FAR:
  
                    RESTRICTED RIGHTS LEGEND
  
 Use, reproduction and disclosure by the US Government is
 subject to restrictions as set forth in subparagraphs (a)
 and (c) of the Commercial Computer Software - Restricted
 Rights clause in FAR 52.227-19.
  
 Gaussian, Inc.
 340 Quinnipiac St., Bldg. 40, Wallingford CT 06492
  
  
 ---------------------------------------------------------------
 Warning -- This program may not be used in any manner that
 competes with the business of Gaussian, Inc. or will provide
 assistance to any competitor of Gaussian, Inc.  The licensee
 of this program is prohibited from giving any competitor of
 Gaussian, Inc. access to this program.  By using this program,
 the user acknowledges that Gaussian, Inc. is engaged in the
 business of creating and licensing software in the field of
 computational chemistry and represents and warrants to the
 licensee that it is not a competitor of Gaussian, Inc. and that
 it will not use this program in any manner prohibited above.
 ---------------------------------------------------------------
  

 Cite this work as:
 Gaussian 09, Revision A.02,
 M. J. Frisch, G. W. Trucks, H. B. Schlegel, G. E. Scuseria, 
 M. A. Robb, J. R. Cheeseman, G. Scalmani, V. Barone, B. Mennucci, 
 G. A. Petersson, H. Nakatsuji, M. Caricato, X. Li, H. P. Hratchian, 
 A. F. Izmaylov, J. Bloino, G. Zheng, J. L. Sonnenberg, M. Hada, 
 M. Ehara, K. Toyota, R. Fukuda, J. Hasegawa, M. Ishida, T. Nakajima, 
 Y. Honda, O. Kitao, H. Nakai, T. Vreven, J. A. Montgomery, Jr., 
 J. E. Peralta, F. Ogliaro, M. Bearpark, J. J. Heyd, E. Brothers, 
 K. N. Kudin, V. N. Staroverov, R. Kobayashi, J. Normand, 
 K. Raghavachari, A. Rendell, J. C. Burant, S. S. Iyengar, J. Tomasi, 
 M. Cossi, N. Rega, J. M. Millam, M. Klene, J. E. Knox, J. B. Cross, 
 V. Bakken, C. Adamo, J. Jaramillo, R. Gomperts, R. E. Stratmann, 
 O. Yazyev, A. J. Austin, R. Cammi, C. Pomelli, J. W. Ochterski, 
 R. L. Martin, K. Morokuma, V. G. Zakrzewski, G. A. Voth, 
 P. Salvador, J. J. Dannenberg, S. Dapprich, A. D. Daniels, 
 O. Farkas, J. B. Foresman, J. V. Ortiz, J. Cioslowski, 
 and D. J. Fox, Gaussian, Inc., Wallingford CT, 2009.
 
 ******************************************
 Gaussian 09:  IA32W-G09RevA.02 11-Jun-2009
                06-Dec-2020 
 ******************************************
 %nprocshared=4
 Will use up to    4 processors via shared memory.
 %mem=1GB
 ----------------------------------------------------------------------
 # opt=(tight,maxcycles=1500) freq b3lyp/6-311++g nosymm pop=(full,nbo)
  polar int=ultrafine scf=xqc
 ----------------------------------------------------------------------
 1/6=1500,7=10,14=-1,18=20,19=15,26=3,38=1/1,3;
 2/9=110,12=2,15=1,17=6,18=5,40=1/2;
 3/5=4,6=6,7=1010,11=2,16=1,25=1,30=1,71=1,74=-5,75=-5/1,2,3;
 4//1;
 5/5=2,8=3,13=1,38=5,98=1/2,8;
 6/7=3,28=1/1,7;
 7/30=1/1,2,3,16;
 1/6=1500,7=10,14=-1,18=20,19=15/3(2);
 2/9=110,15=1/2;
 99//99;
 2/9=110,15=1/2;
 3/5=4,6=6,7=1010,11=2,16=1,25=1,30=1,71=1,74=-5,75=-5/1,2,3;
 4/5=5,16=3/1;
 5/5=2,8=3,13=1,38=5,98=1/2,8;
 7/30=1/1,2,3,16;
 1/6=1500,7=10,14=-1,18=20,19=15/3(-5);
 2/9=110,15=1/2;
 6/7=3,19=2,28=1/1,7;
 99/9=1/99;
 -----
 Title
 -----
 Symbolic Z-matrix:
 Charge =  0 Multiplicity = 5
 Co
 Co                   1    B1
       Variables:
  B1                    2.                       
 

 GradGradGradGradGradGradGradGradGradGradGradGradGradGradGradGradGradGrad
 Berny optimization.
 Initialization pass.
                           ----------------------------
                           !    Initial Parameters    !
                           ! (Angstroms and Degrees)  !
 --------------------------                            --------------------------
 ! Name  Definition              Value          Derivative Info.                !
 --------------------------------------------------------------------------------
 ! R1    R(1,2)                  2.0            estimate D2E/DX2                !
 --------------------------------------------------------------------------------
 Trust Radius=3.00D-01 FncErr=1.00D-07 GrdErr=1.00D-06
 Number of steps in this run= 100 maximum allowed number of steps= 100.
 GradGradGradGradGradGradGradGradGradGradGradGradGradGradGradGradGradGrad

                          Input orientation:                          
 ---------------------------------------------------------------------
 Center     Atomic      Atomic             Coordinates (Angstroms)
 Number     Number       Type             X           Y           Z
 ---------------------------------------------------------------------
      1         27           0        0.000000    0.000000    0.000000
      2         27           0        0.000000    0.000000    2.000000
 ---------------------------------------------------------------------
 Symmetry turned off by external request.
 Stoichiometry    Co2(5)
 Framework group  D*H[C*(Co.Co)]
 Deg. of freedom     1
 Full point group                 D*H     NOp   8
 Rotational constants (GHZ):      0.0000000      4.2877277      4.2877277
 Standard basis: 6-311++G (5D, 7F)
 Integral buffers will be    262144 words long.
 Raffenetti 2 integral format.
 Two-electron integral symmetry is turned off.
   102 basis functions,   168 primitive gaussians,   110 cartesian basis functions
    29 alpha electrons       25 beta electrons
       nuclear repulsion energy       192.8850925311 Hartrees.
 NAtoms=    2 NActive=    2 NUniq=    2 SFac= 7.50D-01 NAtFMM=   80 NAOKFM=F Big=F
 One-electron integrals computed using PRISM.
 NBasis=   102 RedAO= T  NBF=   102
 NBsUse=   102 1.00D-06 NBFU=   102
 Harris functional with IExCor=  402 diagonalized for initial guess.
 ExpMin= 1.33D-02 ExpMax= 2.71D+05 ExpMxC= 9.06D+03 IAcc=3 IRadAn=         5 AccDes= 0.00D+00
 HarFok:  IExCor=  402 AccDes= 0.00D+00 IRadAn=         5 IDoV= 1
 ScaDFX=  1.000000  1.000000  1.000000  1.000000
 FoFCou: FMM=F IPFlag=           0 FMFlag=      100000 FMFlg1=           0
         NFxFlg=           0 DoJE=T BraDBF=F KetDBF=T FulRan=T
         Omega=  0.000000  0.000000  1.000000  0.000000  0.000000 ICntrl=     500 IOpCl=  0
         NMat0=    1 NMatS0=    1 NMatT0=    0 NMatD0=    1 NMtDS0=    0 NMtDT0=    0
         I1Cent=           4 NGrid=           0.
 Symmetry not used in FoFCou.
 Initial guess <Sx>= 0.0000 <Sy>= 0.0000 <Sz>= 2.0000 <S**2>= 6.0000 S= 2.0000
 Requested convergence on RMS density matrix=1.00D-08 within  64 cycles.
 Requested convergence on MAX density matrix=1.00D-06.
 Requested convergence on             energy=1.00D-06.
 No special actions if energy rises.
 Keep R1 and R2 ints in memory in canonical form, NReq=38309558.
 SCF Done:  E(UB3LYP) =  -2765.41193487     A.U. after   15 cycles
             Convg  =    0.3610D-08             -V/T =  2.0009
 <Sx>= 0.0000 <Sy>= 0.0000 <Sz>= 2.0000 <S**2>= 6.0984 S= 2.0196
 <L.S>= 0.000000000000E+00
 Annihilation of the first spin contaminant:
 S**2 before annihilation     6.0984,   after     6.0033
 QCSCF skips out because SCF is already converged.

 **********************************************************************

            Population analysis using the SCF density.

 **********************************************************************

 Alpha  occ. eigenvalues -- -277.46791-277.46791 -32.78484 -32.78483 -28.45579
 Alpha  occ. eigenvalues --  -28.45578 -28.43486 -28.43486 -28.43486 -28.43486
 Alpha  occ. eigenvalues --   -3.73246  -3.72745  -2.46061  -2.43534  -2.40269
 Alpha  occ. eigenvalues --   -2.40269  -2.39970  -2.39970  -0.34135  -0.32092
 Alpha  occ. eigenvalues --   -0.32092  -0.27329  -0.25670  -0.25632  -0.25632
 Alpha  occ. eigenvalues --   -0.25448  -0.25382  -0.23696  -0.21048
 Alpha virt. eigenvalues --   -0.09290  -0.03028  -0.03028  -0.00511   0.02033
 Alpha virt. eigenvalues --    0.02548   0.04622   0.04622   0.11331   0.16162
 Alpha virt. eigenvalues --    0.18316   0.18316   0.20924   0.22054   0.24527
 Alpha virt. eigenvalues --    0.24764   0.24925   0.24925   0.32025   0.32025
 Alpha virt. eigenvalues --    0.33953   0.34107   0.34705   0.44797   0.47186
 Alpha virt. eigenvalues --    0.47186   0.76124   1.33159   1.33159   1.37113
 Alpha virt. eigenvalues --    1.43936   1.44824   1.51914   1.52815   1.62748
 Alpha virt. eigenvalues --    1.62748   1.63851   1.67580   1.67580   1.73629
 Alpha virt. eigenvalues --    1.79267   1.79267   2.20634   3.09597   3.37441
 Alpha virt. eigenvalues --    6.14860   6.14860   6.17615   6.19320   6.23276
 Alpha virt. eigenvalues --    6.24974   6.29903   6.30520   6.30520   6.42965
 Alpha virt. eigenvalues --    8.01122   8.10258   8.10258   8.20242   8.20242
 Alpha virt. eigenvalues --    8.54556  27.47077  27.71058  33.81369  33.87271
 Alpha virt. eigenvalues --   33.87271  33.94566  33.94566  34.19393 153.26055
 Alpha virt. eigenvalues --  153.46744 803.98642 804.20032
  Beta  occ. eigenvalues -- -277.46794-277.46794 -32.73666 -32.73665 -28.41016
  Beta  occ. eigenvalues --  -28.41012 -28.39883 -28.39883 -28.39880 -28.39880
  Beta  occ. eigenvalues --   -3.62526  -3.61960  -2.32932  -2.30043  -2.30043
  Beta  occ. eigenvalues --   -2.29840  -2.29578  -2.29578  -0.23932  -0.20679
  Beta  occ. eigenvalues --   -0.19447  -0.19447  -0.18552  -0.18499  -0.13403
  Beta virt. eigenvalues --   -0.08223  -0.06195  -0.05864  -0.05829  -0.05829
  Beta virt. eigenvalues --   -0.02680  -0.02680  -0.00459   0.02229   0.02849
  Beta virt. eigenvalues --    0.05637   0.05637   0.11835   0.16587   0.19044
  Beta virt. eigenvalues --    0.19044   0.22100   0.23031   0.25024   0.26072
  Beta virt. eigenvalues --    0.26346   0.26346   0.33571   0.33571   0.34629
  Beta virt. eigenvalues --    0.35388   0.36367   0.46048   0.47827   0.47827
  Beta virt. eigenvalues --    0.77532   1.37501   1.37501   1.40925   1.46876
  Beta virt. eigenvalues --    1.49023   1.54977   1.57143   1.67265   1.67265
  Beta virt. eigenvalues --    1.68378   1.71076   1.71076   1.78019   1.83069
  Beta virt. eigenvalues --    1.83069   2.25216   3.14899   3.42707   6.23013
  Beta virt. eigenvalues --    6.23013   6.23429   6.26088   6.29085   6.31725
  Beta virt. eigenvalues --    6.37594   6.38599   6.38599   6.50553   8.09025
  Beta virt. eigenvalues --    8.16502   8.16502   8.26483   8.26483   8.62348
  Beta virt. eigenvalues --   27.53730  27.77712  33.87883  33.92348  33.92348
  Beta virt. eigenvalues --   33.99638  33.99638  34.25881 153.28622 153.49312
  Beta virt. eigenvalues --  803.99157 804.20547
     Alpha Molecular Orbital Coefficients:
                           1         2         3         4         5
                           O         O         O         O         O
     Eigenvalues --  -277.46791-277.46791 -32.78484 -32.78483 -28.45579
   1 1   Co 1S         -0.31221   0.37485   0.11731  -0.11742   0.00008
   2        2S         -0.25778   0.30950   0.17292  -0.17310   0.00011
   3        3S         -0.13002   0.15611   0.06413  -0.06416   0.00006
   4        4S         -0.00876   0.01051  -0.35313   0.35338  -0.00035
   5        5S          0.00136  -0.00162  -0.43211   0.43273  -0.00012
   6        6S         -0.00037   0.00042  -0.03835   0.03793  -0.00003
   7        7S          0.00018  -0.00019   0.00835  -0.00750   0.00006
   8        8S         -0.00022   0.00006  -0.00763   0.00158  -0.00086
   9        9S         -0.00010  -0.00002  -0.00285  -0.00091  -0.00235
  10       10S         -0.00002   0.00001  -0.00059   0.00025   0.00008
  11       11PX         0.00000   0.00000   0.00000   0.00000   0.00000
  12       11PY         0.00000   0.00000   0.00000   0.00000   0.00000
  13       11PZ         0.00000   0.00000  -0.00022   0.00022   0.52832
  14       12PX         0.00000   0.00000   0.00000   0.00000   0.00000
  15       12PY         0.00000   0.00000   0.00000   0.00000   0.00000
  16       12PZ        -0.00001   0.00001  -0.00021   0.00017   0.20976
  17       13PX         0.00000   0.00000   0.00000   0.00000   0.00000
  18       13PY         0.00000   0.00000   0.00000   0.00000   0.00000
  19       13PZ         0.00001  -0.00001   0.00006   0.00004   0.04174
  20       14PX         0.00000   0.00000   0.00000   0.00000   0.00000
  21       14PY         0.00000   0.00000   0.00000   0.00000   0.00000
  22       14PZ        -0.00001   0.00001  -0.00023   0.00010  -0.00419
  23       15PX         0.00000   0.00000   0.00000   0.00000   0.00000
  24       15PY         0.00000   0.00000   0.00000   0.00000   0.00000
  25       15PZ         0.00001  -0.00001   0.00040  -0.00023   0.00188
  26       16PX         0.00000   0.00000   0.00000   0.00000   0.00000
  27       16PY         0.00000   0.00000   0.00000   0.00000   0.00000
  28       16PZ        -0.00016   0.00002  -0.00518   0.00009  -0.00136
  29       17PX         0.00000   0.00000   0.00000   0.00000   0.00000
  30       17PY         0.00000   0.00000   0.00000   0.00000   0.00000
  31       17PZ        -0.00005   0.00000  -0.00150   0.00001  -0.00077
  32       18D 0        0.00000   0.00000  -0.00045   0.00046   0.00010
  33       18D+1        0.00000   0.00000   0.00000   0.00000   0.00000
  34       18D-1        0.00000   0.00000   0.00000   0.00000   0.00000
  35       18D+2        0.00000   0.00000   0.00000   0.00000   0.00000
  36       18D-2        0.00000   0.00000   0.00000   0.00000   0.00000
  37       19D 0        0.00000   0.00000   0.00023  -0.00023  -0.00011
  38       19D+1        0.00000   0.00000   0.00000   0.00000   0.00000
  39       19D-1        0.00000   0.00000   0.00000   0.00000   0.00000
  40       19D+2        0.00000   0.00000   0.00000   0.00000   0.00000
  41       19D-2        0.00000   0.00000   0.00000   0.00000   0.00000
  42       20D 0       -0.00001   0.00000  -0.00046   0.00014   0.00021
  43       20D+1        0.00000   0.00000   0.00000   0.00000   0.00000
  44       20D-1        0.00000   0.00000   0.00000   0.00000   0.00000
  45       20D+2        0.00000   0.00000   0.00000   0.00000   0.00000
  46       20D-2        0.00000   0.00000   0.00000   0.00000   0.00000
  47       21D 0       -0.00005   0.00001  -0.00177   0.00011  -0.00045
  48       21D+1        0.00000   0.00000   0.00000   0.00000   0.00000
  49       21D-1        0.00000   0.00000   0.00000   0.00000   0.00000
  50       21D+2        0.00000   0.00000   0.00000   0.00000   0.00000
  51       21D-2        0.00000   0.00000   0.00000   0.00000   0.00000
  52 2   Co 1S          0.37485   0.31221  -0.11742  -0.11730  -0.00008
  53        2S          0.30950   0.25778  -0.17309  -0.17293  -0.00011
  54        3S          0.15610   0.13002  -0.06419  -0.06410  -0.00006
  55        4S          0.01052   0.00875   0.35348   0.35303   0.00035
  56        5S         -0.00163  -0.00135   0.43253   0.43231   0.00012
  57        6S          0.00044   0.00035   0.03839   0.03789   0.00003
  58        7S         -0.00021  -0.00015  -0.00835  -0.00749  -0.00006
  59        8S          0.00023   0.00002   0.00763   0.00158   0.00086
  60        9S          0.00009  -0.00003   0.00285  -0.00091   0.00235
  61       10S          0.00002   0.00001   0.00059   0.00025  -0.00008
  62       11PX         0.00000   0.00000   0.00000   0.00000   0.00000
  63       11PY         0.00000   0.00000   0.00000   0.00000   0.00000
  64       11PZ         0.00001   0.00000  -0.00022  -0.00022   0.52781
  65       12PX         0.00000   0.00000   0.00000   0.00000   0.00000
  66       12PY         0.00000   0.00000   0.00000   0.00000   0.00000
  67       12PZ        -0.00001   0.00000  -0.00021  -0.00017   0.20956
  68       13PX         0.00000   0.00000   0.00000   0.00000   0.00000
  69       13PY         0.00000   0.00000   0.00000   0.00000   0.00000
  70       13PZ         0.00001   0.00000   0.00006  -0.00004   0.04170
  71       14PX         0.00000   0.00000   0.00000   0.00000   0.00000
  72       14PY         0.00000   0.00000   0.00000   0.00000   0.00000
  73       14PZ        -0.00001  -0.00001  -0.00023  -0.00010  -0.00418
  74       15PX         0.00000   0.00000   0.00000   0.00000   0.00000
  75       15PY         0.00000   0.00000   0.00000   0.00000   0.00000
  76       15PZ         0.00001   0.00001   0.00040   0.00023   0.00188
  77       16PX         0.00000   0.00000   0.00000   0.00000   0.00000
  78       16PY         0.00000   0.00000   0.00000   0.00000   0.00000
  79       16PZ        -0.00016   0.00001  -0.00518  -0.00009  -0.00136
  80       17PX         0.00000   0.00000   0.00000   0.00000   0.00000
  81       17PY         0.00000   0.00000   0.00000   0.00000   0.00000
  82       17PZ        -0.00005   0.00000  -0.00150  -0.00001  -0.00077
  83       18D 0        0.00000   0.00000   0.00045   0.00046  -0.00010
  84       18D+1        0.00000   0.00000   0.00000   0.00000   0.00000
  85       18D-1        0.00000   0.00000   0.00000   0.00000   0.00000
  86       18D+2        0.00000   0.00000   0.00000   0.00000   0.00000
  87       18D-2        0.00000   0.00000   0.00000   0.00000   0.00000
  88       19D 0        0.00000   0.00000  -0.00023  -0.00023   0.00011
  89       19D+1        0.00000   0.00000   0.00000   0.00000   0.00000
  90       19D-1        0.00000   0.00000   0.00000   0.00000   0.00000
  91       19D+2        0.00000   0.00000   0.00000   0.00000   0.00000
  92       19D-2        0.00000   0.00000   0.00000   0.00000   0.00000
  93       20D 0        0.00001   0.00000   0.00046   0.00014  -0.00021
  94       20D+1        0.00000   0.00000   0.00000   0.00000   0.00000
  95       20D-1        0.00000   0.00000   0.00000   0.00000   0.00000
  96       20D+2        0.00000   0.00000   0.00000   0.00000   0.00000
  97       20D-2        0.00000   0.00000   0.00000   0.00000   0.00000
  98       21D 0        0.00005   0.00000   0.00177   0.00011   0.00045
  99       21D+1        0.00000   0.00000   0.00000   0.00000   0.00000
 100       21D-1        0.00000   0.00000   0.00000   0.00000   0.00000
 101       21D+2        0.00000   0.00000   0.00000   0.00000   0.00000
 102       21D-2        0.00000   0.00000   0.00000   0.00000   0.00000
                           6         7         8         9        10
                           O         O         O         O         O
     Eigenvalues --   -28.45578 -28.43486 -28.43486 -28.43486 -28.43486
   1 1   Co 1S         -0.00008   0.00000   0.00000   0.00000   0.00000
   2        2S         -0.00011   0.00000   0.00000   0.00000   0.00000
   3        3S         -0.00005   0.00000   0.00000   0.00000   0.00000
   4        4S          0.00033   0.00000   0.00000   0.00000   0.00000
   5        5S          0.00015   0.00000   0.00000   0.00000   0.00000
   6        6S          0.00001   0.00000   0.00000   0.00000   0.00000
   7        7S         -0.00006   0.00000   0.00000   0.00000   0.00000
   8        8S         -0.00021   0.00000   0.00000   0.00000   0.00000
   9        9S          0.00019   0.00000   0.00000   0.00000   0.00000
  10       10S         -0.00005   0.00000   0.00000   0.00000   0.00000
  11       11PX         0.00000  -0.09239  -0.51852   0.52992  -0.00009
  12       11PY         0.00000  -0.51852   0.09239   0.00010   0.52992
  13       11PZ        -0.52780   0.00000   0.00000   0.00000   0.00000
  14       12PX         0.00000  -0.03664  -0.20564   0.21017  -0.00004
  15       12PY         0.00000  -0.20564   0.03664   0.00004   0.21017
  16       12PZ        -0.20962   0.00000   0.00000   0.00000   0.00000
  17       13PX         0.00000  -0.00724  -0.04065   0.04151  -0.00001
  18       13PY         0.00000  -0.04065   0.00724   0.00001   0.04151
  19       13PZ        -0.04152   0.00000   0.00000   0.00000   0.00000
  20       14PX         0.00000   0.00069   0.00385  -0.00388   0.00000
  21       14PY         0.00000   0.00385  -0.00069   0.00000  -0.00388
  22       14PZ         0.00387   0.00000   0.00000   0.00000   0.00000
  23       15PX         0.00000  -0.00029  -0.00161   0.00158   0.00000
  24       15PY         0.00000  -0.00161   0.00029   0.00000   0.00158
  25       15PZ        -0.00163   0.00000   0.00000   0.00000   0.00000
  26       16PX         0.00000   0.00011   0.00062  -0.00038   0.00000
  27       16PY         0.00000   0.00062  -0.00011   0.00000  -0.00038
  28       16PZ         0.00045   0.00000   0.00000   0.00000   0.00000
  29       17PX         0.00000  -0.00002  -0.00013   0.00013   0.00000
  30       17PY         0.00000  -0.00013   0.00002   0.00000   0.00013
  31       17PZ        -0.00012   0.00000   0.00000   0.00000   0.00000
  32       18D 0       -0.00007   0.00000   0.00000   0.00000   0.00000
  33       18D+1        0.00000  -0.00001  -0.00007   0.00006   0.00000
  34       18D-1        0.00000  -0.00007   0.00001   0.00000   0.00006
  35       18D+2        0.00000   0.00000   0.00000   0.00000   0.00000
  36       18D-2        0.00000   0.00000   0.00000   0.00000   0.00000
  37       19D 0       -0.00001   0.00000   0.00000   0.00000   0.00000
  38       19D+1        0.00000   0.00001   0.00004  -0.00001   0.00000
  39       19D-1        0.00000   0.00004  -0.00001   0.00000  -0.00001
  40       19D+2        0.00000   0.00000   0.00000   0.00000   0.00000
  41       19D-2        0.00000   0.00000   0.00000   0.00000   0.00000
  42       20D 0        0.00005   0.00000   0.00000   0.00000   0.00000
  43       20D+1        0.00000  -0.00001  -0.00004  -0.00001   0.00000
  44       20D-1        0.00000  -0.00004   0.00001   0.00000  -0.00001
  45       20D+2        0.00000   0.00000   0.00000   0.00000   0.00000
  46       20D-2        0.00000   0.00000   0.00000   0.00000   0.00000
  47       21D 0        0.00013   0.00000   0.00000   0.00000   0.00000
  48       21D+1        0.00000   0.00004   0.00022   0.00002   0.00000
  49       21D-1        0.00000   0.00022  -0.00004   0.00000   0.00002
  50       21D+2        0.00000   0.00000   0.00000   0.00000   0.00000
  51       21D-2        0.00000   0.00000   0.00000   0.00000   0.00000
  52 2   Co 1S         -0.00008   0.00000   0.00000   0.00000   0.00000
  53        2S         -0.00011   0.00000   0.00000   0.00000   0.00000
  54        3S         -0.00005   0.00000   0.00000   0.00000   0.00000
  55        4S          0.00033   0.00000   0.00000   0.00000   0.00000
  56        5S          0.00015   0.00000   0.00000   0.00000   0.00000
  57        6S          0.00001   0.00000   0.00000   0.00000   0.00000
  58        7S         -0.00006   0.00000   0.00000   0.00000   0.00000
  59        8S         -0.00021   0.00000   0.00000   0.00000   0.00000
  60        9S          0.00020   0.00000   0.00000   0.00000   0.00000
  61       10S         -0.00005   0.00000   0.00000   0.00000   0.00000
  62       11PX         0.00000   0.09296   0.52171   0.52668  -0.00010
  63       11PY         0.00000   0.52171  -0.09295   0.00009   0.52668
  64       11PZ         0.52831   0.00000   0.00000   0.00000   0.00000
  65       12PX         0.00000   0.03686   0.20690   0.20889  -0.00004
  66       12PY         0.00000   0.20690  -0.03686   0.00004   0.20889
  67       12PZ         0.20982   0.00000   0.00000   0.00000   0.00000
  68       13PX         0.00000   0.00729   0.04090   0.04126  -0.00001
  69       13PY         0.00000   0.04090  -0.00729   0.00001   0.04126
  70       13PZ         0.04156   0.00000   0.00000   0.00000   0.00000
  71       14PX         0.00000  -0.00069  -0.00387  -0.00385   0.00000
  72       14PY         0.00000  -0.00387   0.00069   0.00000  -0.00385
  73       14PZ        -0.00388   0.00000   0.00000   0.00000   0.00000
  74       15PX         0.00000   0.00029   0.00162   0.00157   0.00000
  75       15PY         0.00000   0.00162  -0.00029   0.00000   0.00157
  76       15PZ         0.00163   0.00000   0.00000   0.00000   0.00000
  77       16PX         0.00000  -0.00011  -0.00062  -0.00037   0.00000
  78       16PY         0.00000  -0.00062   0.00011   0.00000  -0.00037
  79       16PZ        -0.00045   0.00000   0.00000   0.00000   0.00000
  80       17PX         0.00000   0.00002   0.00013   0.00012   0.00000
  81       17PY         0.00000   0.00013  -0.00002   0.00000   0.00012
  82       17PZ         0.00012   0.00000   0.00000   0.00000   0.00000
  83       18D 0       -0.00007   0.00000   0.00000   0.00000   0.00000
  84       18D+1        0.00000  -0.00001  -0.00007  -0.00006   0.00000
  85       18D-1        0.00000  -0.00007   0.00001   0.00000  -0.00006
  86       18D+2        0.00000   0.00000   0.00000   0.00000   0.00000
  87       18D-2        0.00000   0.00000   0.00000   0.00000   0.00000
  88       19D 0       -0.00001   0.00000   0.00000   0.00000   0.00000
  89       19D+1        0.00000   0.00001   0.00004   0.00001   0.00000
  90       19D-1        0.00000   0.00004  -0.00001   0.00000   0.00001
  91       19D+2        0.00000   0.00000   0.00000   0.00000   0.00000
  92       19D-2        0.00000   0.00000   0.00000   0.00000   0.00000
  93       20D 0        0.00005   0.00000   0.00000   0.00000   0.00000
  94       20D+1        0.00000  -0.00001  -0.00004   0.00001   0.00000
  95       20D-1        0.00000  -0.00004   0.00001   0.00000   0.00001
  96       20D+2        0.00000   0.00000   0.00000   0.00000   0.00000
  97       20D-2        0.00000   0.00000   0.00000   0.00000   0.00000
  98       21D 0        0.00013   0.00000   0.00000   0.00000   0.00000
  99       21D+1        0.00000   0.00004   0.00022  -0.00002   0.00000
 100       21D-1        0.00000   0.00022  -0.00004   0.00000  -0.00002
 101       21D+2        0.00000   0.00000   0.00000   0.00000   0.00000
 102       21D-2        0.00000   0.00000   0.00000   0.00000   0.00000
                          11        12        13        14        15
                           O         O         O         O         O
     Eigenvalues --    -3.73246  -3.72745  -2.46061  -2.43534  -2.40269
   1 1   Co 1S          0.04512   0.04523  -0.00041   0.00041   0.00000
   2        2S          0.07026   0.07045  -0.00065   0.00065   0.00000
   3        3S          0.03046   0.03049  -0.00027   0.00023   0.00000
   4        4S         -0.22074  -0.22115   0.00208  -0.00183   0.00000
   5        5S         -0.34523  -0.34651   0.00305  -0.00398   0.00000
   6        6S          0.48054   0.48295  -0.00359   0.00802   0.00000
   7        7S          0.41083   0.41094  -0.00593   0.00127   0.00000
   8        8S          0.01471   0.02198   0.00108  -0.01356   0.00000
   9        9S         -0.00609  -0.00831  -0.00044  -0.01006   0.00000
  10       10S          0.00145   0.00242   0.00003  -0.00165   0.00000
  11       11PX         0.00000   0.00000   0.00000   0.00000  -0.21741
  12       11PY         0.00000   0.00000   0.00000   0.00000   0.01061
  13       11PZ        -0.00118  -0.00022  -0.21644  -0.21959   0.00000
  14       12PX         0.00000   0.00000   0.00000   0.00000  -0.06656
  15       12PY         0.00000   0.00000   0.00000   0.00000   0.00325
  16       12PZ        -0.00067  -0.00014  -0.06680  -0.06762   0.00000
  17       13PX         0.00000   0.00000   0.00000   0.00000   0.26492
  18       13PY         0.00000   0.00000   0.00000   0.00000  -0.01292
  19       13PZ         0.00240   0.00050   0.26426   0.26812   0.00000
  20       14PX         0.00000   0.00000   0.00000   0.00000   0.37773
  21       14PY         0.00000   0.00000   0.00000   0.00000  -0.01843
  22       14PZ         0.00090   0.00124   0.37511   0.38286   0.00000
  23       15PX         0.00000   0.00000   0.00000   0.00000   0.17689
  24       15PY         0.00000   0.00000   0.00000   0.00000  -0.00863
  25       15PZ         0.00049  -0.00301   0.17745   0.17537   0.00000
  26       16PX         0.00000   0.00000   0.00000   0.00000   0.00636
  27       16PY         0.00000   0.00000   0.00000   0.00000  -0.00031
  28       16PZ        -0.00010   0.00625   0.00552  -0.00427   0.00000
  29       17PX         0.00000   0.00000   0.00000   0.00000  -0.00083
  30       17PY         0.00000   0.00000   0.00000   0.00000   0.00004
  31       17PZ         0.00003  -0.00075  -0.00151  -0.00517   0.00000
  32       18D 0        0.00366   0.00336   0.00189   0.00001   0.00000
  33       18D+1        0.00000   0.00000   0.00000   0.00000   0.00097
  34       18D-1        0.00000   0.00000   0.00000   0.00000  -0.00005
  35       18D+2        0.00000   0.00000   0.00000   0.00000   0.00000
  36       18D-2        0.00000   0.00000   0.00000   0.00000   0.00000
  37       19D 0        0.00408   0.00389   0.00133  -0.00114   0.00000
  38       19D+1        0.00000   0.00000   0.00000   0.00000  -0.00017
  39       19D-1        0.00000   0.00000   0.00000   0.00000   0.00001
  40       19D+2        0.00000   0.00000   0.00000   0.00000   0.00000
  41       19D-2        0.00000   0.00000   0.00000   0.00000   0.00000
  42       20D 0        0.00131  -0.00062   0.00197  -0.00229   0.00000
  43       20D+1        0.00000   0.00000   0.00000   0.00000   0.00009
  44       20D-1        0.00000   0.00000   0.00000   0.00000   0.00000
  45       20D+2        0.00000   0.00000   0.00000   0.00000   0.00000
  46       20D-2        0.00000   0.00000   0.00000   0.00000   0.00000
  47       21D 0        0.00017   0.00232  -0.00099  -0.00354   0.00000
  48       21D+1        0.00000   0.00000   0.00000   0.00000  -0.00014
  49       21D-1        0.00000   0.00000   0.00000   0.00000   0.00001
  50       21D+2        0.00000   0.00000   0.00000   0.00000   0.00000
  51       21D-2        0.00000   0.00000   0.00000   0.00000   0.00000
  52 2   Co 1S          0.04512  -0.04523  -0.00041  -0.00041   0.00000
  53        2S          0.07026  -0.07045  -0.00065  -0.00065   0.00000
  54        3S          0.03046  -0.03049  -0.00027  -0.00023   0.00000
  55        4S         -0.22074   0.22115   0.00208   0.00183   0.00000
  56        5S         -0.34523   0.34651   0.00305   0.00398   0.00000
  57        6S          0.48054  -0.48295  -0.00359  -0.00802   0.00000
  58        7S          0.41083  -0.41094  -0.00593  -0.00127   0.00000
  59        8S          0.01471  -0.02198   0.00108   0.01356   0.00000
  60        9S         -0.00609   0.00831  -0.00044   0.01006   0.00000
  61       10S          0.00145  -0.00242   0.00003   0.00165   0.00000
  62       11PX         0.00000   0.00000   0.00000   0.00000  -0.21741
  63       11PY         0.00000   0.00000   0.00000   0.00000   0.01061
  64       11PZ         0.00118  -0.00022   0.21644  -0.21959   0.00000
  65       12PX         0.00000   0.00000   0.00000   0.00000  -0.06656
  66       12PY         0.00000   0.00000   0.00000   0.00000   0.00325
  67       12PZ         0.00067  -0.00014   0.06680  -0.06762   0.00000
  68       13PX         0.00000   0.00000   0.00000   0.00000   0.26493
  69       13PY         0.00000   0.00000   0.00000   0.00000  -0.01292
  70       13PZ        -0.00240   0.00050  -0.26426   0.26812   0.00000
  71       14PX         0.00000   0.00000   0.00000   0.00000   0.37773
  72       14PY         0.00000   0.00000   0.00000   0.00000  -0.01843
  73       14PZ        -0.00090   0.00124  -0.37511   0.38286   0.00000
  74       15PX         0.00000   0.00000   0.00000   0.00000   0.17689
  75       15PY         0.00000   0.00000   0.00000   0.00000  -0.00863
  76       15PZ        -0.00049  -0.00301  -0.17745   0.17538   0.00000
  77       16PX         0.00000   0.00000   0.00000   0.00000   0.00636
  78       16PY         0.00000   0.00000   0.00000   0.00000  -0.00031
  79       16PZ         0.00010   0.00625  -0.00552  -0.00427   0.00000
  80       17PX         0.00000   0.00000   0.00000   0.00000  -0.00083
  81       17PY         0.00000   0.00000   0.00000   0.00000   0.00004
  82       17PZ        -0.00003  -0.00075   0.00151  -0.00517   0.00000
  83       18D 0        0.00366  -0.00336   0.00189  -0.00001   0.00000
  84       18D+1        0.00000   0.00000   0.00000   0.00000  -0.00097
  85       18D-1        0.00000   0.00000   0.00000   0.00000   0.00005
  86       18D+2        0.00000   0.00000   0.00000   0.00000   0.00000
  87       18D-2        0.00000   0.00000   0.00000   0.00000   0.00000
  88       19D 0        0.00408  -0.00389   0.00133   0.00114   0.00000
  89       19D+1        0.00000   0.00000   0.00000   0.00000   0.00017
  90       19D-1        0.00000   0.00000   0.00000   0.00000  -0.00001
  91       19D+2        0.00000   0.00000   0.00000   0.00000   0.00000
  92       19D-2        0.00000   0.00000   0.00000   0.00000   0.00000
  93       20D 0        0.00131   0.00062   0.00197   0.00229   0.00000
  94       20D+1        0.00000   0.00000   0.00000   0.00000  -0.00009
  95       20D-1        0.00000   0.00000   0.00000   0.00000   0.00000
  96       20D+2        0.00000   0.00000   0.00000   0.00000   0.00000
  97       20D-2        0.00000   0.00000   0.00000   0.00000   0.00000
  98       21D 0        0.00017  -0.00232  -0.00099   0.00354   0.00000
  99       21D+1        0.00000   0.00000   0.00000   0.00000   0.00014
 100       21D-1        0.00000   0.00000   0.00000   0.00000  -0.00001
 101       21D+2        0.00000   0.00000   0.00000   0.00000   0.00000
 102       21D-2        0.00000   0.00000   0.00000   0.00000   0.00000
                          16        17        18        19        20
                           O         O         O         O         O
     Eigenvalues --    -2.40269  -2.39970  -2.39970  -0.34135  -0.32092
   1 1   Co 1S          0.00000   0.00000   0.00000  -0.00365   0.00000
   2        2S          0.00000   0.00000   0.00000  -0.00579   0.00000
   3        3S          0.00000   0.00000   0.00000  -0.00233   0.00000
   4        4S          0.00000   0.00000   0.00000   0.01819   0.00000
   5        5S          0.00000   0.00000   0.00000   0.03243   0.00000
   6        6S          0.00000   0.00000   0.00000  -0.05956   0.00000
   7        7S          0.00000   0.00000   0.00000  -0.05276   0.00000
   8        8S          0.00000   0.00000   0.00000   0.06706   0.00000
   9        9S          0.00000   0.00000   0.00000   0.00544   0.00000
  10       10S          0.00000   0.00000   0.00000   0.00245   0.00000
  11       11PX        -0.01061  -0.21516  -0.03601   0.00000   0.00583
  12       11PY        -0.21741   0.03601  -0.21516   0.00000   0.00014
  13       11PZ         0.00000   0.00000   0.00000   0.01312   0.00000
  14       12PX        -0.00325  -0.06581  -0.01102   0.00000   0.00139
  15       12PY        -0.06656   0.01102  -0.06581   0.00000   0.00003
  16       12PZ         0.00000   0.00000   0.00000   0.00346   0.00000
  17       13PX         0.01292   0.26204   0.04386   0.00000  -0.00683
  18       13PY         0.26492  -0.04386   0.26204   0.00000  -0.00016
  19       13PZ         0.00000   0.00000   0.00000  -0.01682   0.00000
  20       14PX         0.01843   0.37439   0.06266   0.00000  -0.01449
  21       14PY         0.37773  -0.06266   0.37439   0.00000  -0.00034
  22       14PZ         0.00000   0.00000   0.00000  -0.03078   0.00000
  23       15PX         0.00863   0.17423   0.02916   0.00000  -0.00089
  24       15PY         0.17689  -0.02916   0.17423   0.00000  -0.00002
  25       15PZ         0.00000   0.00000   0.00000  -0.00014   0.00000
  26       16PX         0.00031   0.00598   0.00100   0.00000   0.00803
  27       16PY         0.00636  -0.00100   0.00598   0.00000   0.00019
  28       16PZ         0.00000   0.00000   0.00000   0.00380   0.00000
  29       17PX        -0.00004  -0.00087  -0.00015   0.00000   0.00045
  30       17PY        -0.00083   0.00015  -0.00087   0.00000   0.00001
  31       17PZ         0.00000   0.00000   0.00000   0.00423   0.00000
  32       18D 0        0.00000   0.00000   0.00000   0.31005   0.00000
  33       18D+1        0.00005   0.00054   0.00009   0.00000   0.31088
  34       18D-1        0.00097  -0.00009   0.00054   0.00000   0.00736
  35       18D+2        0.00000   0.00000   0.00000   0.00000   0.00000
  36       18D-2        0.00000   0.00000   0.00000   0.00000   0.00000
  37       19D 0        0.00000   0.00000   0.00000   0.29742   0.00000
  38       19D+1       -0.00001  -0.00036  -0.00006   0.00000   0.29700
  39       19D-1       -0.00017   0.00006  -0.00036   0.00000   0.00703
  40       19D+2        0.00000   0.00000   0.00000   0.00000   0.00000
  41       19D-2        0.00000   0.00000   0.00000   0.00000   0.00000
  42       20D 0        0.00000   0.00000   0.00000   0.23390   0.00000
  43       20D+1        0.00000  -0.00165  -0.00028   0.00000   0.23878
  44       20D-1        0.00009   0.00028  -0.00165   0.00000   0.00565
  45       20D+2        0.00000   0.00000   0.00000   0.00000   0.00000
  46       20D-2        0.00000   0.00000   0.00000   0.00000   0.00000
  47       21D 0        0.00000   0.00000   0.00000   0.07302   0.00000
  48       21D+1       -0.00001   0.00015   0.00003   0.00000   0.07369
  49       21D-1       -0.00014  -0.00003   0.00015   0.00000   0.00174
  50       21D+2        0.00000   0.00000   0.00000   0.00000   0.00000
  51       21D-2        0.00000   0.00000   0.00000   0.00000   0.00000
  52 2   Co 1S          0.00000   0.00000   0.00000  -0.00365   0.00000
  53        2S          0.00000   0.00000   0.00000  -0.00579   0.00000
  54        3S          0.00000   0.00000   0.00000  -0.00233   0.00000
  55        4S          0.00000   0.00000   0.00000   0.01819   0.00000
  56        5S          0.00000   0.00000   0.00000   0.03243   0.00000
  57        6S          0.00000   0.00000   0.00000  -0.05956   0.00000
  58        7S          0.00000   0.00000   0.00000  -0.05276   0.00000
  59        8S          0.00000   0.00000   0.00000   0.06706   0.00000
  60        9S          0.00000   0.00000   0.00000   0.00544   0.00000
  61       10S          0.00000   0.00000   0.00000   0.00245   0.00000
  62       11PX        -0.01061   0.21515   0.03601   0.00000   0.00583
  63       11PY        -0.21741  -0.03601   0.21515   0.00000   0.00014
  64       11PZ         0.00000   0.00000   0.00000  -0.01312   0.00000
  65       12PX        -0.00325   0.06581   0.01102   0.00000   0.00139
  66       12PY        -0.06656  -0.01102   0.06581   0.00000   0.00003
  67       12PZ         0.00000   0.00000   0.00000  -0.00346   0.00000
  68       13PX         0.01292  -0.26204  -0.04386   0.00000  -0.00683
  69       13PY         0.26493   0.04386  -0.26204   0.00000  -0.00016
  70       13PZ         0.00000   0.00000   0.00000   0.01682   0.00000
  71       14PX         0.01843  -0.37438  -0.06266   0.00000  -0.01449
  72       14PY         0.37773   0.06266  -0.37438   0.00000  -0.00034
  73       14PZ         0.00000   0.00000   0.00000   0.03078   0.00000
  74       15PX         0.00863  -0.17423  -0.02916   0.00000  -0.00089
  75       15PY         0.17689   0.02916  -0.17423   0.00000  -0.00002
  76       15PZ         0.00000   0.00000   0.00000   0.00014   0.00000
  77       16PX         0.00031  -0.00598  -0.00100   0.00000   0.00803
  78       16PY         0.00636   0.00100  -0.00598   0.00000   0.00019
  79       16PZ         0.00000   0.00000   0.00000  -0.00380   0.00000
  80       17PX        -0.00004   0.00087   0.00015   0.00000   0.00045
  81       17PY        -0.00083  -0.00015   0.00087   0.00000   0.00001
  82       17PZ         0.00000   0.00000   0.00000  -0.00423   0.00000
  83       18D 0        0.00000   0.00000   0.00000   0.31005   0.00000
  84       18D+1       -0.00005   0.00054   0.00009   0.00000  -0.31088
  85       18D-1       -0.00097  -0.00009   0.00054   0.00000  -0.00736
  86       18D+2        0.00000   0.00000   0.00000   0.00000   0.00000
  87       18D-2        0.00000   0.00000   0.00000   0.00000   0.00000
  88       19D 0        0.00000   0.00000   0.00000   0.29742   0.00000
  89       19D+1        0.00001  -0.00036  -0.00006   0.00000  -0.29700
  90       19D-1        0.00017   0.00006  -0.00036   0.00000  -0.00703
  91       19D+2        0.00000   0.00000   0.00000   0.00000   0.00000
  92       19D-2        0.00000   0.00000   0.00000   0.00000   0.00000
  93       20D 0        0.00000   0.00000   0.00000   0.23390   0.00000
  94       20D+1        0.00000  -0.00165  -0.00028   0.00000  -0.23878
  95       20D-1       -0.00009   0.00028  -0.00165   0.00000  -0.00565
  96       20D+2        0.00000   0.00000   0.00000   0.00000   0.00000
  97       20D-2        0.00000   0.00000   0.00000   0.00000   0.00000
  98       21D 0        0.00000   0.00000   0.00000   0.07302   0.00000
  99       21D+1        0.00001   0.00015   0.00003   0.00000  -0.07369
 100       21D-1        0.00014  -0.00003   0.00015   0.00000  -0.00174
 101       21D+2        0.00000   0.00000   0.00000   0.00000   0.00000
 102       21D-2        0.00000   0.00000   0.00000   0.00000   0.00000
                          21        22        23        24        25
                           O         O         O         O         O
     Eigenvalues --    -0.32092  -0.27329  -0.25670  -0.25632  -0.25632
   1 1   Co 1S          0.00000   0.00000   0.00000   0.00000   0.00000
   2        2S          0.00000   0.00000   0.00000   0.00000   0.00000
   3        3S          0.00000   0.00000   0.00000   0.00000   0.00000
   4        4S          0.00000   0.00000   0.00000   0.00000   0.00000
   5        5S          0.00000   0.00000   0.00000   0.00000   0.00000
   6        6S          0.00000   0.00000   0.00000   0.00000   0.00000
   7        7S          0.00000   0.00000   0.00000   0.00000   0.00000
   8        8S          0.00000   0.00000   0.00000   0.00000   0.00000
   9        9S          0.00000   0.00000   0.00000   0.00000   0.00000
  10       10S          0.00000   0.00000   0.00000   0.00000   0.00000
  11       11PX        -0.00014   0.00000   0.00000  -0.00937  -0.00155
  12       11PY         0.00583   0.00000   0.00000   0.00155  -0.00937
  13       11PZ         0.00000   0.00000   0.00000   0.00000   0.00000
  14       12PX        -0.00003   0.00000   0.00000  -0.00235  -0.00039
  15       12PY         0.00139   0.00000   0.00000   0.00039  -0.00235
  16       12PZ         0.00000   0.00000   0.00000   0.00000   0.00000
  17       13PX         0.00016   0.00000   0.00000   0.01178   0.00194
  18       13PY        -0.00683   0.00000   0.00000  -0.00194   0.01178
  19       13PZ         0.00000   0.00000   0.00000   0.00000   0.00000
  20       14PX         0.00034   0.00000   0.00000   0.02504   0.00413
  21       14PY        -0.01449   0.00000   0.00000  -0.00413   0.02504
  22       14PZ         0.00000   0.00000   0.00000   0.00000   0.00000
  23       15PX         0.00002   0.00000   0.00000  -0.00826  -0.00136
  24       15PY        -0.00089   0.00000   0.00000   0.00136  -0.00826
  25       15PZ         0.00000   0.00000   0.00000   0.00000   0.00000
  26       16PX        -0.00019   0.00000   0.00000  -0.02636  -0.00435
  27       16PY         0.00803   0.00000   0.00000   0.00435  -0.02636
  28       16PZ         0.00000   0.00000   0.00000   0.00000   0.00000
  29       17PX        -0.00001   0.00000   0.00000  -0.00212  -0.00035
  30       17PY         0.00045   0.00000   0.00000   0.00035  -0.00212
  31       17PZ         0.00000   0.00000   0.00000   0.00000   0.00000
  32       18D 0        0.00000   0.00000   0.00000   0.00000   0.00000
  33       18D+1       -0.00736   0.00000   0.00000   0.32829   0.05416
  34       18D-1        0.31088   0.00000   0.00000  -0.05416   0.32829
  35       18D+2        0.00000   0.00000   0.00000   0.00000   0.00000
  36       18D-2        0.00000   0.31747   0.32696   0.00000   0.00000
  37       19D 0        0.00000   0.00000   0.00000   0.00000   0.00000
  38       19D+1       -0.00703   0.00000   0.00000   0.31246   0.05155
  39       19D-1        0.29700   0.00000   0.00000  -0.05155   0.31246
  40       19D+2        0.00000   0.00000   0.00000   0.00000   0.00000
  41       19D-2        0.00000   0.30314   0.31251   0.00000   0.00000
  42       20D 0        0.00000   0.00000   0.00000   0.00000   0.00000
  43       20D+1       -0.00565   0.00000   0.00000   0.23755   0.03919
  44       20D-1        0.23878   0.00000   0.00000  -0.03919   0.23755
  45       20D+2        0.00000   0.00000   0.00000   0.00000   0.00000
  46       20D-2        0.00000   0.23907   0.24094   0.00000   0.00000
  47       21D 0        0.00000   0.00000   0.00000   0.00000   0.00000
  48       21D+1       -0.00174   0.00000   0.00000   0.09688   0.01598
  49       21D-1        0.07369   0.00000   0.00000  -0.01598   0.09688
  50       21D+2        0.00000   0.00000   0.00000   0.00000   0.00000
  51       21D-2        0.00000   0.08481   0.08962   0.00000   0.00000
  52 2   Co 1S          0.00000   0.00000   0.00000   0.00000   0.00000
  53        2S          0.00000   0.00000   0.00000   0.00000   0.00000
  54        3S          0.00000   0.00000   0.00000   0.00000   0.00000
  55        4S          0.00000   0.00000   0.00000   0.00000   0.00000
  56        5S          0.00000   0.00000   0.00000   0.00000   0.00000
  57        6S          0.00000   0.00000   0.00000   0.00000   0.00000
  58        7S          0.00000   0.00000   0.00000   0.00000   0.00000
  59        8S          0.00000   0.00000   0.00000   0.00000   0.00000
  60        9S          0.00000   0.00000   0.00000   0.00000   0.00000
  61       10S          0.00000   0.00000   0.00000   0.00000   0.00000
  62       11PX        -0.00014   0.00000   0.00000   0.00937   0.00155
  63       11PY         0.00583   0.00000   0.00000  -0.00155   0.00937
  64       11PZ         0.00000   0.00000   0.00000   0.00000   0.00000
  65       12PX        -0.00003   0.00000   0.00000   0.00235   0.00039
  66       12PY         0.00139   0.00000   0.00000  -0.00039   0.00235
  67       12PZ         0.00000   0.00000   0.00000   0.00000   0.00000
  68       13PX         0.00016   0.00000   0.00000  -0.01178  -0.00194
  69       13PY        -0.00683   0.00000   0.00000   0.00194  -0.01178
  70       13PZ         0.00000   0.00000   0.00000   0.00000   0.00000
  71       14PX         0.00034   0.00000   0.00000  -0.02504  -0.00413
  72       14PY        -0.01449   0.00000   0.00000   0.00413  -0.02504
  73       14PZ         0.00000   0.00000   0.00000   0.00000   0.00000
  74       15PX         0.00002   0.00000   0.00000   0.00826   0.00136
  75       15PY        -0.00089   0.00000   0.00000  -0.00136   0.00826
  76       15PZ         0.00000   0.00000   0.00000   0.00000   0.00000
  77       16PX        -0.00019   0.00000   0.00000   0.02636   0.00435
  78       16PY         0.00803   0.00000   0.00000  -0.00435   0.02636
  79       16PZ         0.00000   0.00000   0.00000   0.00000   0.00000
  80       17PX        -0.00001   0.00000   0.00000   0.00212   0.00035
  81       17PY         0.00045   0.00000   0.00000  -0.00035   0.00212
  82       17PZ         0.00000   0.00000   0.00000   0.00000   0.00000
  83       18D 0        0.00000   0.00000   0.00000   0.00000   0.00000
  84       18D+1        0.00736   0.00000   0.00000   0.32829   0.05416
  85       18D-1       -0.31088   0.00000   0.00000  -0.05416   0.32829
  86       18D+2        0.00000   0.00000   0.00000   0.00000   0.00000
  87       18D-2        0.00000   0.31747  -0.32696   0.00000   0.00000
  88       19D 0        0.00000   0.00000   0.00000   0.00000   0.00000
  89       19D+1        0.00703   0.00000   0.00000   0.31246   0.05155
  90       19D-1       -0.29700   0.00000   0.00000  -0.05155   0.31246
  91       19D+2        0.00000   0.00000   0.00000   0.00000   0.00000
  92       19D-2        0.00000   0.30314  -0.31251   0.00000   0.00000
  93       20D 0        0.00000   0.00000   0.00000   0.00000   0.00000
  94       20D+1        0.00565   0.00000   0.00000   0.23755   0.03919
  95       20D-1       -0.23878   0.00000   0.00000  -0.03919   0.23755
  96       20D+2        0.00000   0.00000   0.00000   0.00000   0.00000
  97       20D-2        0.00000   0.23907  -0.24094   0.00000   0.00000
  98       21D 0        0.00000   0.00000   0.00000   0.00000   0.00000
  99       21D+1        0.00174   0.00000   0.00000   0.09688   0.01598
 100       21D-1       -0.07369   0.00000   0.00000  -0.01598   0.09688
 101       21D+2        0.00000   0.00000   0.00000   0.00000   0.00000
 102       21D-2        0.00000   0.08481  -0.08962   0.00000   0.00000
                          26        27        28        29        30
                           O         O         O         O         V
     Eigenvalues --    -0.25448  -0.25382  -0.23696  -0.21048  -0.09290
   1 1   Co 1S          0.00000   0.00210   0.00000  -0.01121  -0.00791
   2        2S          0.00000   0.00334   0.00000  -0.01767  -0.01243
   3        3S          0.00000   0.00130   0.00000  -0.00750  -0.00540
   4        4S          0.00000  -0.01034   0.00000   0.05713   0.04073
   5        5S          0.00000  -0.01946   0.00000   0.09764   0.06801
   6        6S          0.00000   0.03857   0.00000  -0.17736  -0.12176
   7        7S          0.00000   0.03015   0.00000  -0.21337  -0.16426
   8        8S          0.00000  -0.04293   0.00000   0.42017   0.34348
   9        9S          0.00000   0.00138   0.00000   0.22506   0.25026
  10       10S          0.00000   0.00504   0.00000   0.01011   0.15681
  11       11PX         0.00000   0.00000   0.00000   0.00000   0.00000
  12       11PY         0.00000   0.00000   0.00000   0.00000   0.00000
  13       11PZ         0.00000  -0.01180   0.00000   0.00923  -0.02502
  14       12PX         0.00000   0.00000   0.00000   0.00000   0.00000
  15       12PY         0.00000   0.00000   0.00000   0.00000   0.00000
  16       12PZ         0.00000  -0.00355   0.00000   0.00281  -0.00679
  17       13PX         0.00000   0.00000   0.00000   0.00000   0.00000
  18       13PY         0.00000   0.00000   0.00000   0.00000   0.00000
  19       13PZ         0.00000   0.01705   0.00000  -0.01346   0.03334
  20       14PX         0.00000   0.00000   0.00000   0.00000   0.00000
  21       14PY         0.00000   0.00000   0.00000   0.00000   0.00000
  22       14PZ         0.00000   0.02603   0.00000  -0.01984   0.06018
  23       15PX         0.00000   0.00000   0.00000   0.00000   0.00000
  24       15PY         0.00000   0.00000   0.00000   0.00000   0.00000
  25       15PZ         0.00000  -0.00306   0.00000  -0.00322   0.00263
  26       16PX         0.00000   0.00000   0.00000   0.00000   0.00000
  27       16PY         0.00000   0.00000   0.00000   0.00000   0.00000
  28       16PZ         0.00000  -0.01608   0.00000   0.00124  -0.17969
  29       17PX         0.00000   0.00000   0.00000   0.00000   0.00000
  30       17PY         0.00000   0.00000   0.00000   0.00000   0.00000
  31       17PZ         0.00000   0.00816   0.00000  -0.00438  -0.22230
  32       18D 0        0.00000   0.33035   0.00000  -0.05056   0.02167
  33       18D+1        0.00000   0.00000   0.00000   0.00000   0.00000
  34       18D-1        0.00000   0.00000   0.00000   0.00000   0.00000
  35       18D+2        0.31469   0.00000   0.32490   0.00000   0.00000
  36       18D-2        0.00000   0.00000   0.00000   0.00000   0.00000
  37       19D 0        0.00000   0.31261   0.00000  -0.04734   0.01955
  38       19D+1        0.00000   0.00000   0.00000   0.00000   0.00000
  39       19D-1        0.00000   0.00000   0.00000   0.00000   0.00000
  40       19D+2        0.30021   0.00000   0.31026   0.00000   0.00000
  41       19D-2        0.00000   0.00000   0.00000   0.00000   0.00000
  42       20D 0        0.00000   0.24691   0.00000  -0.03362   0.02116
  43       20D+1        0.00000   0.00000   0.00000   0.00000   0.00000
  44       20D-1        0.00000   0.00000   0.00000   0.00000   0.00000
  45       20D+2        0.24110   0.00000   0.24350   0.00000   0.00000
  46       20D-2        0.00000   0.00000   0.00000   0.00000   0.00000
  47       21D 0        0.00000   0.08973   0.00000  -0.00986   0.01519
  48       21D+1        0.00000   0.00000   0.00000   0.00000   0.00000
  49       21D-1        0.00000   0.00000   0.00000   0.00000   0.00000
  50       21D+2        0.09155   0.00000   0.09668   0.00000   0.00000
  51       21D-2        0.00000   0.00000   0.00000   0.00000   0.00000
  52 2   Co 1S          0.00000  -0.00210   0.00000  -0.01121   0.00791
  53        2S          0.00000  -0.00334   0.00000  -0.01767   0.01243
  54        3S          0.00000  -0.00130   0.00000  -0.00750   0.00540
  55        4S          0.00000   0.01034   0.00000   0.05713  -0.04073
  56        5S          0.00000   0.01946   0.00000   0.09764  -0.06801
  57        6S          0.00000  -0.03857   0.00000  -0.17736   0.12176
  58        7S          0.00000  -0.03015   0.00000  -0.21337   0.16426
  59        8S          0.00000   0.04293   0.00000   0.42017  -0.34348
  60        9S          0.00000  -0.00138   0.00000   0.22506  -0.25026
  61       10S          0.00000  -0.00504   0.00000   0.01011  -0.15681
  62       11PX         0.00000   0.00000   0.00000   0.00000   0.00000
  63       11PY         0.00000   0.00000   0.00000   0.00000   0.00000
  64       11PZ         0.00000  -0.01180   0.00000  -0.00923  -0.02502
  65       12PX         0.00000   0.00000   0.00000   0.00000   0.00000
  66       12PY         0.00000   0.00000   0.00000   0.00000   0.00000
  67       12PZ         0.00000  -0.00355   0.00000  -0.00281  -0.00679
  68       13PX         0.00000   0.00000   0.00000   0.00000   0.00000
  69       13PY         0.00000   0.00000   0.00000   0.00000   0.00000
  70       13PZ         0.00000   0.01705   0.00000   0.01346   0.03334
  71       14PX         0.00000   0.00000   0.00000   0.00000   0.00000
  72       14PY         0.00000   0.00000   0.00000   0.00000   0.00000
  73       14PZ         0.00000   0.02603   0.00000   0.01984   0.06018
  74       15PX         0.00000   0.00000   0.00000   0.00000   0.00000
  75       15PY         0.00000   0.00000   0.00000   0.00000   0.00000
  76       15PZ         0.00000  -0.00306   0.00000   0.00322   0.00263
  77       16PX         0.00000   0.00000   0.00000   0.00000   0.00000
  78       16PY         0.00000   0.00000   0.00000   0.00000   0.00000
  79       16PZ         0.00000  -0.01608   0.00000  -0.00124  -0.17969
  80       17PX         0.00000   0.00000   0.00000   0.00000   0.00000
  81       17PY         0.00000   0.00000   0.00000   0.00000   0.00000
  82       17PZ         0.00000   0.00816   0.00000   0.00438  -0.22230
  83       18D 0        0.00000  -0.33035   0.00000  -0.05056  -0.02167
  84       18D+1        0.00000   0.00000   0.00000   0.00000   0.00000
  85       18D-1        0.00000   0.00000   0.00000   0.00000   0.00000
  86       18D+2        0.31469   0.00000  -0.32490   0.00000   0.00000
  87       18D-2        0.00000   0.00000   0.00000   0.00000   0.00000
  88       19D 0        0.00000  -0.31261   0.00000  -0.04734  -0.01955
  89       19D+1        0.00000   0.00000   0.00000   0.00000   0.00000
  90       19D-1        0.00000   0.00000   0.00000   0.00000   0.00000
  91       19D+2        0.30021   0.00000  -0.31026   0.00000   0.00000
  92       19D-2        0.00000   0.00000   0.00000   0.00000   0.00000
  93       20D 0        0.00000  -0.24691   0.00000  -0.03362  -0.02116
  94       20D+1        0.00000   0.00000   0.00000   0.00000   0.00000
  95       20D-1        0.00000   0.00000   0.00000   0.00000   0.00000
  96       20D+2        0.24110   0.00000  -0.24350   0.00000   0.00000
  97       20D-2        0.00000   0.00000   0.00000   0.00000   0.00000
  98       21D 0        0.00000  -0.08973   0.00000  -0.00986  -0.01519
  99       21D+1        0.00000   0.00000   0.00000   0.00000   0.00000
 100       21D-1        0.00000   0.00000   0.00000   0.00000   0.00000
 101       21D+2        0.09155   0.00000  -0.09668   0.00000   0.00000
 102       21D-2        0.00000   0.00000   0.00000   0.00000   0.00000
                          31        32        33        34        35
                           V         V         V         V         V
     Eigenvalues --    -0.03028  -0.03028  -0.00511   0.02033   0.02548
   1 1   Co 1S          0.00000   0.00000   0.00348   0.00313  -0.00085
   2        2S          0.00000   0.00000   0.00553   0.00493  -0.00134
   3        3S          0.00000   0.00000   0.00222   0.00207  -0.00056
   4        4S          0.00000   0.00000  -0.01739  -0.01591   0.00430
   5        5S          0.00000   0.00000  -0.03151  -0.02750   0.00744
   6        6S          0.00000   0.00000   0.05983   0.05041  -0.01342
   7        7S          0.00000   0.00000   0.06059   0.06342  -0.01860
   8        8S          0.00000   0.00000  -0.04592  -0.10237   0.02829
   9        9S          0.00000   0.00000  -0.11979  -0.00460   0.82198
  10       10S          0.00000   0.00000   0.47779   3.23532  -0.74132
  11       11PX         0.03495   0.00184   0.00000   0.00000   0.00000
  12       11PY        -0.00184   0.03495   0.00000   0.00000   0.00000
  13       11PZ         0.00000   0.00000  -0.03013   0.00890  -0.02803
  14       12PX         0.00912   0.00048   0.00000   0.00000   0.00000
  15       12PY        -0.00048   0.00912   0.00000   0.00000   0.00000
  16       12PZ         0.00000   0.00000  -0.00821   0.00220  -0.00711
  17       13PX        -0.04557  -0.00240   0.00000   0.00000   0.00000
  18       13PY         0.00240  -0.04557   0.00000   0.00000   0.00000
  19       13PZ         0.00000   0.00000   0.04072  -0.01118   0.03595
  20       14PX        -0.08661  -0.00456   0.00000   0.00000   0.00000
  21       14PY         0.00456  -0.08661   0.00000   0.00000   0.00000
  22       14PZ         0.00000   0.00000   0.07251  -0.02357   0.07236
  23       15PX        -0.00022  -0.00001   0.00000   0.00000   0.00000
  24       15PY         0.00001  -0.00022   0.00000   0.00000   0.00000
  25       15PZ         0.00000   0.00000   0.00437   0.00355  -0.00516
  26       16PX         0.20289   0.01067   0.00000   0.00000   0.00000
  27       16PY        -0.01067   0.20289   0.00000   0.00000   0.00000
  28       16PZ         0.00000   0.00000  -0.14992   0.06334  -0.14100
  29       17PX         0.40308   0.02121   0.00000   0.00000   0.00000
  30       17PY        -0.02121   0.40308   0.00000   0.00000   0.00000
  31       17PZ         0.00000   0.00000  -0.43150   0.46412  -0.67759
  32       18D 0        0.00000   0.00000   0.00007  -0.01015  -0.02268
  33       18D+1       -0.02255  -0.00119   0.00000   0.00000   0.00000
  34       18D-1        0.00119  -0.02255   0.00000   0.00000   0.00000
  35       18D+2        0.00000   0.00000   0.00000   0.00000   0.00000
  36       18D-2        0.00000   0.00000   0.00000   0.00000   0.00000
  37       19D 0        0.00000   0.00000  -0.00124  -0.00838  -0.02248
  38       19D+1       -0.02151  -0.00113   0.00000   0.00000   0.00000
  39       19D-1        0.00113  -0.02151   0.00000   0.00000   0.00000
  40       19D+2        0.00000   0.00000   0.00000   0.00000   0.00000
  41       19D-2        0.00000   0.00000   0.00000   0.00000   0.00000
  42       20D 0        0.00000   0.00000   0.00402  -0.01209  -0.00944
  43       20D+1       -0.01282  -0.00067   0.00000   0.00000   0.00000
  44       20D-1        0.00067  -0.01282   0.00000   0.00000   0.00000
  45       20D+2        0.00000   0.00000   0.00000   0.00000   0.00000
  46       20D-2        0.00000   0.00000   0.00000   0.00000   0.00000
  47       21D 0        0.00000   0.00000   0.00567   0.01859   0.02592
  48       21D+1       -0.02836  -0.00149   0.00000   0.00000   0.00000
  49       21D-1        0.00149  -0.02836   0.00000   0.00000   0.00000
  50       21D+2        0.00000   0.00000   0.00000   0.00000   0.00000
  51       21D-2        0.00000   0.00000   0.00000   0.00000   0.00000
  52 2   Co 1S          0.00000   0.00000   0.00348  -0.00313  -0.00085
  53        2S          0.00000   0.00000   0.00553  -0.00493  -0.00134
  54        3S          0.00000   0.00000   0.00222  -0.00207  -0.00056
  55        4S          0.00000   0.00000  -0.01739   0.01591   0.00430
  56        5S          0.00000   0.00000  -0.03151   0.02750   0.00744
  57        6S          0.00000   0.00000   0.05983  -0.05041  -0.01342
  58        7S          0.00000   0.00000   0.06059  -0.06342  -0.01860
  59        8S          0.00000   0.00000  -0.04592   0.10237   0.02829
  60        9S          0.00000   0.00000  -0.11979   0.00459   0.82198
  61       10S          0.00000   0.00000   0.47779  -3.23532  -0.74132
  62       11PX         0.03495   0.00184   0.00000   0.00000   0.00000
  63       11PY        -0.00184   0.03495   0.00000   0.00000   0.00000
  64       11PZ         0.00000   0.00000   0.03013   0.00890   0.02803
  65       12PX         0.00912   0.00048   0.00000   0.00000   0.00000
  66       12PY        -0.00048   0.00912   0.00000   0.00000   0.00000
  67       12PZ         0.00000   0.00000   0.00821   0.00220   0.00711
  68       13PX        -0.04557  -0.00240   0.00000   0.00000   0.00000
  69       13PY         0.00240  -0.04557   0.00000   0.00000   0.00000
  70       13PZ         0.00000   0.00000  -0.04072  -0.01118  -0.03595
  71       14PX        -0.08661  -0.00456   0.00000   0.00000   0.00000
  72       14PY         0.00456  -0.08661   0.00000   0.00000   0.00000
  73       14PZ         0.00000   0.00000  -0.07251  -0.02357  -0.07236
  74       15PX        -0.00022  -0.00001   0.00000   0.00000   0.00000
  75       15PY         0.00001  -0.00022   0.00000   0.00000   0.00000
  76       15PZ         0.00000   0.00000  -0.00437   0.00355   0.00516
  77       16PX         0.20289   0.01067   0.00000   0.00000   0.00000
  78       16PY        -0.01067   0.20289   0.00000   0.00000   0.00000
  79       16PZ         0.00000   0.00000   0.14992   0.06334   0.14100
  80       17PX         0.40308   0.02121   0.00000   0.00000   0.00000
  81       17PY        -0.02121   0.40308   0.00000   0.00000   0.00000
  82       17PZ         0.00000   0.00000   0.43150   0.46412   0.67759
  83       18D 0        0.00000   0.00000   0.00007   0.01015  -0.02268
  84       18D+1        0.02255   0.00119   0.00000   0.00000   0.00000
  85       18D-1       -0.00119   0.02255   0.00000   0.00000   0.00000
  86       18D+2        0.00000   0.00000   0.00000   0.00000   0.00000
  87       18D-2        0.00000   0.00000   0.00000   0.00000   0.00000
  88       19D 0        0.00000   0.00000  -0.00124   0.00838  -0.02248
  89       19D+1        0.02151   0.00113   0.00000   0.00000   0.00000
  90       19D-1       -0.00113   0.02151   0.00000   0.00000   0.00000
  91       19D+2        0.00000   0.00000   0.00000   0.00000   0.00000
  92       19D-2        0.00000   0.00000   0.00000   0.00000   0.00000
  93       20D 0        0.00000   0.00000   0.00402   0.01209  -0.00944
  94       20D+1        0.01282   0.00067   0.00000   0.00000   0.00000
  95       20D-1       -0.00067   0.01282   0.00000   0.00000   0.00000
  96       20D+2        0.00000   0.00000   0.00000   0.00000   0.00000
  97       20D-2        0.00000   0.00000   0.00000   0.00000   0.00000
  98       21D 0        0.00000   0.00000   0.00567  -0.01859   0.02592
  99       21D+1        0.02836   0.00149   0.00000   0.00000   0.00000
 100       21D-1       -0.00149   0.02836   0.00000   0.00000   0.00000
 101       21D+2        0.00000   0.00000   0.00000   0.00000   0.00000
 102       21D-2        0.00000   0.00000   0.00000   0.00000   0.00000
                          36        37        38        39        40
                           V         V         V         V         V
     Eigenvalues --     0.04622   0.04622   0.11331   0.16162   0.18316
   1 1   Co 1S          0.00000   0.00000  -0.00373  -0.00689   0.00000
   2        2S          0.00000   0.00000  -0.00581  -0.01059   0.00000
   3        3S          0.00000   0.00000  -0.00269  -0.00539   0.00000
   4        4S          0.00000   0.00000   0.01974   0.03795   0.00000
   5        5S          0.00000   0.00000   0.03101   0.05390   0.00000
   6        6S          0.00000   0.00000  -0.05365  -0.08890   0.00000
   7        7S          0.00000   0.00000  -0.09591  -0.20227   0.00000
   8        8S          0.00000   0.00000   0.27895   1.44906   0.00000
   9        9S          0.00000   0.00000  12.16350  -1.20508   0.00000
  10       10S          0.00000   0.00000   2.30047   0.35883   0.00000
  11       11PX        -0.00209   0.02084   0.00000   0.00000   0.04931
  12       11PY         0.02084   0.00209   0.00000   0.00000  -0.00284
  13       11PZ         0.00000   0.00000  -0.00589   0.03406   0.00000
  14       12PX        -0.00051   0.00505   0.00000   0.00000   0.01684
  15       12PY         0.00505   0.00051   0.00000   0.00000  -0.00097
  16       12PZ         0.00000   0.00000  -0.00076   0.01036   0.00000
  17       13PX         0.00259  -0.02586   0.00000   0.00000  -0.08046
  18       13PY        -0.02586  -0.00259   0.00000   0.00000   0.00464
  19       13PZ         0.00000   0.00000   0.00481  -0.05072   0.00000
  20       14PX         0.00552  -0.05519   0.00000   0.00000  -0.08809
  21       14PY        -0.05519  -0.00552   0.00000   0.00000   0.00508
  22       14PZ         0.00000   0.00000   0.02261  -0.07400   0.00000
  23       15PX        -0.00059   0.00592   0.00000   0.00000  -0.07926
  24       15PY         0.00592   0.00059   0.00000   0.00000   0.00457
  25       15PZ         0.00000   0.00000  -0.02126  -0.02092   0.00000
  26       16PX        -0.00945   0.09438   0.00000   0.00000   0.86126
  27       16PY         0.09438   0.00945   0.00000   0.00000  -0.04965
  28       16PZ         0.00000   0.00000   0.34123   0.43625   0.00000
  29       17PX        -0.12728   1.27182   0.00000   0.00000  -0.64297
  30       17PY         1.27182   0.12728   0.00000   0.00000   0.03707
  31       17PZ         0.00000   0.00000   5.96342  -0.96267   0.00000
  32       18D 0        0.00000   0.00000   0.04800  -0.03968   0.00000
  33       18D+1       -0.00618   0.06173   0.00000   0.00000  -0.04189
  34       18D-1        0.06173   0.00618   0.00000   0.00000   0.00241
  35       18D+2        0.00000   0.00000   0.00000   0.00000   0.00000
  36       18D-2        0.00000   0.00000   0.00000   0.00000   0.00000
  37       19D 0        0.00000   0.00000   0.04738  -0.03981   0.00000
  38       19D+1       -0.00602   0.06016   0.00000   0.00000  -0.03535
  39       19D-1        0.06016   0.00602   0.00000   0.00000   0.00204
  40       19D+2        0.00000   0.00000   0.00000   0.00000   0.00000
  41       19D-2        0.00000   0.00000   0.00000   0.00000   0.00000
  42       20D 0        0.00000   0.00000   0.02068  -0.00435   0.00000
  43       20D+1       -0.00293   0.02926   0.00000   0.00000  -0.03686
  44       20D-1        0.02926   0.00293   0.00000   0.00000   0.00213
  45       20D+2        0.00000   0.00000   0.00000   0.00000   0.00000
  46       20D-2        0.00000   0.00000   0.00000   0.00000   0.00000
  47       21D 0        0.00000   0.00000   0.28771  -0.27227   0.00000
  48       21D+1       -0.00098   0.00976   0.00000   0.00000   0.02995
  49       21D-1        0.00976   0.00098   0.00000   0.00000  -0.00173
  50       21D+2        0.00000   0.00000   0.00000   0.00000   0.00000
  51       21D-2        0.00000   0.00000   0.00000   0.00000   0.00000
  52 2   Co 1S          0.00000   0.00000   0.00373  -0.00689   0.00000
  53        2S          0.00000   0.00000   0.00581  -0.01059   0.00000
  54        3S          0.00000   0.00000   0.00269  -0.00539   0.00000
  55        4S          0.00000   0.00000  -0.01974   0.03795   0.00000
  56        5S          0.00000   0.00000  -0.03101   0.05390   0.00000
  57        6S          0.00000   0.00000   0.05365  -0.08890   0.00000
  58        7S          0.00000   0.00000   0.09591  -0.20227   0.00000
  59        8S          0.00000   0.00000  -0.27895   1.44906   0.00000
  60        9S          0.00000   0.00000 -12.16350  -1.20508   0.00000
  61       10S          0.00000   0.00000  -2.30047   0.35883   0.00000
  62       11PX         0.00209  -0.02084   0.00000   0.00000   0.04931
  63       11PY        -0.02084  -0.00209   0.00000   0.00000  -0.00284
  64       11PZ         0.00000   0.00000  -0.00589  -0.03406   0.00000
  65       12PX         0.00051  -0.00505   0.00000   0.00000   0.01684
  66       12PY        -0.00505  -0.00051   0.00000   0.00000  -0.00097
  67       12PZ         0.00000   0.00000  -0.00076  -0.01036   0.00000
  68       13PX        -0.00259   0.02586   0.00000   0.00000  -0.08046
  69       13PY         0.02586   0.00259   0.00000   0.00000   0.00464
  70       13PZ         0.00000   0.00000   0.00481   0.05072   0.00000
  71       14PX        -0.00552   0.05519   0.00000   0.00000  -0.08809
  72       14PY         0.05519   0.00552   0.00000   0.00000   0.00508
  73       14PZ         0.00000   0.00000   0.02261   0.07400   0.00000
  74       15PX         0.00059  -0.00592   0.00000   0.00000  -0.07926
  75       15PY        -0.00592  -0.00059   0.00000   0.00000   0.00457
  76       15PZ         0.00000   0.00000  -0.02126   0.02092   0.00000
  77       16PX         0.00945  -0.09438   0.00000   0.00000   0.86126
  78       16PY        -0.09438  -0.00945   0.00000   0.00000  -0.04965
  79       16PZ         0.00000   0.00000   0.34123  -0.43625   0.00000
  80       17PX         0.12728  -1.27182   0.00000   0.00000  -0.64297
  81       17PY        -1.27182  -0.12728   0.00000   0.00000   0.03707
  82       17PZ         0.00000   0.00000   5.96342   0.96267   0.00000
  83       18D 0        0.00000   0.00000  -0.04800  -0.03968   0.00000
  84       18D+1       -0.00618   0.06173   0.00000   0.00000   0.04189
  85       18D-1        0.06173   0.00618   0.00000   0.00000  -0.00241
  86       18D+2        0.00000   0.00000   0.00000   0.00000   0.00000
  87       18D-2        0.00000   0.00000   0.00000   0.00000   0.00000
  88       19D 0        0.00000   0.00000  -0.04738  -0.03981   0.00000
  89       19D+1       -0.00602   0.06016   0.00000   0.00000   0.03535
  90       19D-1        0.06016   0.00602   0.00000   0.00000  -0.00204
  91       19D+2        0.00000   0.00000   0.00000   0.00000   0.00000
  92       19D-2        0.00000   0.00000   0.00000   0.00000   0.00000
  93       20D 0        0.00000   0.00000  -0.02068  -0.00435   0.00000
  94       20D+1       -0.00293   0.02926   0.00000   0.00000   0.03686
  95       20D-1        0.02926   0.00293   0.00000   0.00000  -0.00213
  96       20D+2        0.00000   0.00000   0.00000   0.00000   0.00000
  97       20D-2        0.00000   0.00000   0.00000   0.00000   0.00000
  98       21D 0        0.00000   0.00000  -0.28771  -0.27227   0.00000
  99       21D+1       -0.00098   0.00976   0.00000   0.00000  -0.02995
 100       21D-1        0.00976   0.00098   0.00000   0.00000   0.00173
 101       21D+2        0.00000   0.00000   0.00000   0.00000   0.00000
 102       21D-2        0.00000   0.00000   0.00000   0.00000   0.00000
                          41        42        43        44        45
                           V         V         V         V         V
     Eigenvalues --     0.18316   0.20924   0.22054   0.24527   0.24764
   1 1   Co 1S          0.00000   0.00562  -0.00783   0.00000   0.00000
   2        2S          0.00000   0.00855  -0.01207   0.00000   0.00000
   3        3S          0.00000   0.00466  -0.00605   0.00000   0.00000
   4        4S          0.00000  -0.03189   0.04294   0.00000   0.00000
   5        5S          0.00000  -0.04162   0.06195   0.00000   0.00000
   6        6S          0.00000   0.06308  -0.10308   0.00000   0.00000
   7        7S          0.00000   0.19389  -0.22791   0.00000   0.00000
   8        8S          0.00000  -1.00522   1.17207   0.00000   0.00000
   9        9S          0.00000   1.44566  -8.53839   0.00000   0.00000
  10       10S          0.00000  -0.52853   1.09130   0.00000   0.00000
  11       11PX         0.00284   0.00000   0.00000   0.00000   0.00000
  12       11PY         0.04931   0.00000   0.00000   0.00000   0.00000
  13       11PZ         0.00000   0.04341  -0.02291   0.00000   0.00000
  14       12PX         0.00097   0.00000   0.00000   0.00000   0.00000
  15       12PY         0.01684   0.00000   0.00000   0.00000   0.00000
  16       12PZ         0.00000   0.01430  -0.00907   0.00000   0.00000
  17       13PX        -0.00464   0.00000   0.00000   0.00000   0.00000
  18       13PY        -0.08046   0.00000   0.00000   0.00000   0.00000
  19       13PZ         0.00000  -0.06903   0.04215   0.00000   0.00000
  20       14PX        -0.00508   0.00000   0.00000   0.00000   0.00000
  21       14PY        -0.08809   0.00000   0.00000   0.00000   0.00000
  22       14PZ         0.00000  -0.08293   0.02972   0.00000   0.00000
  23       15PX        -0.00457   0.00000   0.00000   0.00000   0.00000
  24       15PY        -0.07926   0.00000   0.00000   0.00000   0.00000
  25       15PZ         0.00000  -0.06119   0.06842   0.00000   0.00000
  26       16PX         0.04965   0.00000   0.00000   0.00000   0.00000
  27       16PY         0.86126   0.00000   0.00000   0.00000   0.00000
  28       16PZ         0.00000   0.74588  -1.05625   0.00000   0.00000
  29       17PX        -0.03707   0.00000   0.00000   0.00000   0.00000
  30       17PY        -0.64297   0.00000   0.00000   0.00000   0.00000
  31       17PZ         0.00000  -0.95928  -2.44186   0.00000   0.00000
  32       18D 0        0.00000   0.02724  -0.01770   0.00000   0.00000
  33       18D+1       -0.00241   0.00000   0.00000   0.00000   0.00000
  34       18D-1       -0.04189   0.00000   0.00000   0.00000   0.00000
  35       18D+2        0.00000   0.00000   0.00000   0.00000  -0.13011
  36       18D-2        0.00000   0.00000   0.00000  -0.12676   0.00000
  37       19D 0        0.00000   0.02197  -0.01334   0.00000   0.00000
  38       19D+1       -0.00204   0.00000   0.00000   0.00000   0.00000
  39       19D-1       -0.03535   0.00000   0.00000   0.00000   0.00000
  40       19D+2        0.00000   0.00000   0.00000   0.00000  -0.10448
  41       19D-2        0.00000   0.00000   0.00000  -0.10151   0.00000
  42       20D 0        0.00000   0.02038  -0.02188   0.00000   0.00000
  43       20D+1       -0.00213   0.00000   0.00000   0.00000   0.00000
  44       20D-1       -0.03686   0.00000   0.00000   0.00000   0.00000
  45       20D+2        0.00000   0.00000   0.00000   0.00000  -0.13891
  46       20D-2        0.00000   0.00000   0.00000  -0.13315   0.00000
  47       21D 0        0.00000  -0.21647  -0.17514   0.00000   0.00000
  48       21D+1        0.00173   0.00000   0.00000   0.00000   0.00000
  49       21D-1        0.02995   0.00000   0.00000   0.00000   0.00000
  50       21D+2        0.00000   0.00000   0.00000   0.00000   0.61950
  51       21D-2        0.00000   0.00000   0.00000   0.61969   0.00000
  52 2   Co 1S          0.00000   0.00562   0.00783   0.00000   0.00000
  53        2S          0.00000   0.00855   0.01207   0.00000   0.00000
  54        3S          0.00000   0.00466   0.00605   0.00000   0.00000
  55        4S          0.00000  -0.03189  -0.04294   0.00000   0.00000
  56        5S          0.00000  -0.04162  -0.06195   0.00000   0.00000
  57        6S          0.00000   0.06308   0.10308   0.00000   0.00000
  58        7S          0.00000   0.19389   0.22791   0.00000   0.00000
  59        8S          0.00000  -1.00522  -1.17207   0.00000   0.00000
  60        9S          0.00000   1.44565   8.53839   0.00000   0.00000
  61       10S          0.00000  -0.52853  -1.09130   0.00000   0.00000
  62       11PX         0.00284   0.00000   0.00000   0.00000   0.00000
  63       11PY         0.04931   0.00000   0.00000   0.00000   0.00000
  64       11PZ         0.00000  -0.04341  -0.02291   0.00000   0.00000
  65       12PX         0.00097   0.00000   0.00000   0.00000   0.00000
  66       12PY         0.01684   0.00000   0.00000   0.00000   0.00000
  67       12PZ         0.00000  -0.01430  -0.00907   0.00000   0.00000
  68       13PX        -0.00464   0.00000   0.00000   0.00000   0.00000
  69       13PY        -0.08046   0.00000   0.00000   0.00000   0.00000
  70       13PZ         0.00000   0.06903   0.04215   0.00000   0.00000
  71       14PX        -0.00508   0.00000   0.00000   0.00000   0.00000
  72       14PY        -0.08809   0.00000   0.00000   0.00000   0.00000
  73       14PZ         0.00000   0.08293   0.02972   0.00000   0.00000
  74       15PX        -0.00457   0.00000   0.00000   0.00000   0.00000
  75       15PY        -0.07926   0.00000   0.00000   0.00000   0.00000
  76       15PZ         0.00000   0.06119   0.06842   0.00000   0.00000
  77       16PX         0.04965   0.00000   0.00000   0.00000   0.00000
  78       16PY         0.86126   0.00000   0.00000   0.00000   0.00000
  79       16PZ         0.00000  -0.74588  -1.05625   0.00000   0.00000
  80       17PX        -0.03707   0.00000   0.00000   0.00000   0.00000
  81       17PY        -0.64297   0.00000   0.00000   0.00000   0.00000
  82       17PZ         0.00000   0.95929  -2.44186   0.00000   0.00000
  83       18D 0        0.00000   0.02724   0.01770   0.00000   0.00000
  84       18D+1        0.00241   0.00000   0.00000   0.00000   0.00000
  85       18D-1        0.04189   0.00000   0.00000   0.00000   0.00000
  86       18D+2        0.00000   0.00000   0.00000   0.00000  -0.13011
  87       18D-2        0.00000   0.00000   0.00000  -0.12676   0.00000
  88       19D 0        0.00000   0.02197   0.01334   0.00000   0.00000
[...]
                                            0.0000  0.0000  0.0000  0.0000  0.1553
                                            0.0035  0.0009  0.0005  0.0000  0.0000
                                            0.0000  0.0000  0.0000  0.0000  0.0000
                                            0.0000  0.0000  0.0000  0.0000  0.0000
                                            0.0000  0.0000  0.0000  0.0000 -0.9867
                                           -0.0448 -0.0167 -0.0004  0.0000  0.0000
                                            0.0000  0.0000  0.0000  0.0000  0.0000
                                            0.0000
   102. (0.00283) BD*( 5)Co   1 -Co   2  
                ( 50.00%)   0.7071*Co   1 s(  0.15%)p 2.02(  0.31%)d99.99( 99.54%)
                                            0.0000  0.0000  0.0000  0.0063 -0.0386
                                            0.0001  0.0005  0.0000  0.0001  0.0000
                                            0.0000  0.0000  0.0000  0.0000  0.0000
                                            0.0000  0.0000  0.0000  0.0000  0.0000
                                            0.0000  0.0000  0.0000  0.0000  0.0000
                                            0.0000 -0.0530 -0.0166  0.0029  0.0005
                                           -0.0001  0.0000  0.0000  0.0000  0.0000
                                            0.0000  0.0000  0.0000  0.0000  0.0000
                                            0.0000  0.0000  0.0000  0.0000  0.0000
                                            0.0000  0.0000 -0.9971 -0.0330 -0.0126
                                            0.0007
                ( 50.00%)  -0.7071*Co   2 s(  0.15%)p 2.02(  0.31%)d99.99( 99.54%)
                                            0.0000  0.0000  0.0000  0.0063 -0.0386
                                            0.0001  0.0005  0.0000  0.0001  0.0000
                                            0.0000  0.0000  0.0000  0.0000  0.0000
                                            0.0000  0.0000  0.0000  0.0000  0.0000
                                            0.0000  0.0000  0.0000  0.0000  0.0000
                                            0.0000  0.0530  0.0166 -0.0029 -0.0005
                                            0.0001  0.0000  0.0000  0.0000  0.0000
                                            0.0000  0.0000  0.0000  0.0000  0.0000
                                            0.0000  0.0000  0.0000  0.0000  0.0000
                                            0.0000  0.0000 -0.9971 -0.0330 -0.0126
                                            0.0007


 NHO Directionality and "Bond Bending" (deviations from line of nuclear centers)

         [Thresholds for printing:  angular deviation  >  1.0 degree]
                                    hybrid p-character > 25.0%
                                    orbital occupancy  >  0.10e

                                Line of Centers        Hybrid 1              Hybrid 2
                                ---------------  -------------------   ------------------
                NBO               Theta   Phi    Theta   Phi    Dev    Theta   Phi    Dev
 ========================================================================================
    None exceeding thresholds


 Second Order Perturbation Theory Analysis of Fock Matrix in NBO Basis

     Threshold for printing:   0.25 kcal/mol
                                                                              E(2)  E(j)-E(i) F(i,j)
         Donor NBO (i)                     Acceptor NBO (j)                 kcal/mol   a.u.    a.u. 
 ===================================================================================================

 within unit  1
   7. CR (   2)Co   1                /102. BD*(   5)Co   1 -Co   2            0.58   31.41    0.171
   8. CR (   3)Co   1                / 25. LP*(   2)Co   1                    0.50    5.76    0.068
   8. CR (   3)Co   1                / 29. LP*(   2)Co   2                    0.99    5.76    0.095
   8. CR (   3)Co   1                /102. BD*(   5)Co   1 -Co   2            2.61    5.06    0.145
  10. CR (   5)Co   1                /100. BD*(   3)Co   1 -Co   2            0.33    2.32    0.035
  12. CR (   7)Co   1                /101. BD*(   4)Co   1 -Co   2            0.33    2.32    0.035
  14. CR (   9)Co   1                / 98. BD*(   1)Co   1 -Co   2            0.93    2.41    0.060
  14. CR (   9)Co   1                /102. BD*(   5)Co   1 -Co   2            0.87    2.30    0.057
  16. CR (   2)Co   2                /102. BD*(   5)Co   1 -Co   2            0.58   31.41    0.171
  17. CR (   3)Co   2                / 25. LP*(   2)Co   1                    0.99    5.76    0.095
  17. CR (   3)Co   2                / 29. LP*(   2)Co   2                    0.50    5.76    0.068
  17. CR (   3)Co   2                /102. BD*(   5)Co   1 -Co   2            2.61    5.06    0.145
  19. CR (   5)Co   2                /100. BD*(   3)Co   1 -Co   2            0.33    2.32    0.035
  21. CR (   7)Co   2                /101. BD*(   4)Co   1 -Co   2            0.33    2.32    0.035
  23. CR (   9)Co   2                / 98. BD*(   1)Co   1 -Co   2            0.93    2.41    0.060
  23. CR (   9)Co   2                /102. BD*(   5)Co   1 -Co   2            0.87    2.30    0.057


 Natural Bond Orbitals (Summary):

                                                            Principal Delocalizations
           NBO                        Occupancy    Energy   (geminal,vicinal,remote)
 ====================================================================================
 Molecular unit  1  (Co2)
     1. BD (   1)Co   1 -Co   2          1.00000    -0.30354   
     2. BD (   2)Co   1 -Co   2          1.00000    -0.13661   
     3. BD (   3)Co   1 -Co   2          1.00000    -0.20185   
     4. BD (   4)Co   1 -Co   2          1.00000    -0.20185   
     5. BD (   5)Co   1 -Co   2          1.00000    -0.23351   
     6. CR (   1)Co   1                  1.00000  -277.17719   
     7. CR (   2)Co   1                  1.00000   -31.46753  102(g)
     8. CR (   3)Co   1                  0.99882    -5.12710  102(g),29(v),25(g)
     9. CR (   4)Co   1                  1.00000   -28.34299   
    10. CR (   5)Co   1                  0.99975    -2.35440  100(g)
    11. CR (   6)Co   1                  1.00000   -28.34299   
    12. CR (   7)Co   1                  0.99975    -2.35440  101(g)
    13. CR (   8)Co   1                  1.00000   -28.35464   
    14. CR (   9)Co   1                  0.99871    -2.36718  98(g),102(g)
    15. CR (   1)Co   2                  1.00000  -277.17719   
    16. CR (   2)Co   2                  1.00000   -31.46753  102(g)
    17. CR (   3)Co   2                  0.99882    -5.12710  102(g),25(v),29(g)
    18. CR (   4)Co   2                  1.00000   -28.34299   
    19. CR (   5)Co   2                  0.99975    -2.35440  100(g)
    20. CR (   6)Co   2                  1.00000   -28.34299   
    21. CR (   7)Co   2                  0.99975    -2.35440  101(g)
    22. CR (   8)Co   2                  1.00000   -28.35464   
    23. CR (   9)Co   2                  0.99871    -2.36718  98(g),102(g)
    24. LP (   1)Co   1                  0.99999    -0.19690   
    25. LP*(   2)Co   1                  0.00040     0.63381   
    26. LP*(   3)Co   1                  0.00005     1.11360   
    27. LP*(   4)Co   1                  0.00002     0.45718   
    28. LP (   1)Co   2                  0.99999    -0.19690   
    29. LP*(   2)Co   2                  0.00040     0.63381   
    30. LP*(   3)Co   2                  0.00005     1.11361   
    31. LP*(   4)Co   2                  0.00002     0.45718   
    32. RY*(   1)Co   1                  0.00002     1.24238   
    33. RY*(   2)Co   1                  0.00002     0.45718   
    34. RY*(   3)Co   1                  0.00001     1.48061   
    35. RY*(   4)Co   1                  0.00000     3.01373   
    36. RY*(   5)Co   1                  0.00000     1.21500   
    37. RY*(   6)Co   1                  0.00000     1.01540   
    38. RY*(   7)Co   1                  0.00000    10.59426   
    39. RY*(   8)Co   1                  0.00000    30.85789   
    40. RY*(   9)Co   1                  0.00000     2.80892   
    41. RY*(  10)Co   1                  0.00000     1.21500   
    42. RY*(  11)Co   1                  0.00000     1.01540   
    43. RY*(  12)Co   1                  0.00000    10.59426   
    44. RY*(  13)Co   1                  0.00000    30.85789   
    45. RY*(  14)Co   1                  0.00000    58.60245   
    46. RY*(  15)Co   1                  0.00000   710.73163   
    47. RY*(  16)Co   1                  0.00000     0.53571   
    48. RY*(  17)Co   1                  0.00000    10.70651   
    49. RY*(  18)Co   1                  0.00000    30.88486   
    50. RY*(  19)Co   1                  0.00000     0.47609   
    51. RY*(  20)Co   1                  0.00000     1.40063   
    52. RY*(  21)Co   1                  0.00000     6.25026   
    53. RY*(  22)Co   1                  0.00000     0.58018   
    54. RY*(  23)Co   1                  0.00000     1.46643   
    55. RY*(  24)Co   1                  0.00000     6.24545   
    56. RY*(  25)Co   1                  0.00000     0.58018   
    57. RY*(  26)Co   1                  0.00000     1.46643   
    58. RY*(  27)Co   1                  0.00000     6.24545   
    59. RY*(  28)Co   1                  0.00000     0.33533   
    60. RY*(  29)Co   1                  0.00000   212.56139   
    61. RY*(  30)Co   1                  0.00000     6.25398   
    62. RY*(  31)Co   1                  0.00000     1.38001   
    63. RY*(  32)Co   1                  0.00000     1.51188   
    64. RY*(  33)Co   1                  0.00000     6.35314   
    65. RY*(   1)Co   2                  0.00002     1.24237   
    66. RY*(   2)Co   2                  0.00002     0.45718   
    67. RY*(   3)Co   2                  0.00001     1.48061   
    68. RY*(   4)Co   2                  0.00000     3.01374   
    69. RY*(   5)Co   2                  0.00000     1.21500   
    70. RY*(   6)Co   2                  0.00000     1.01540   
    71. RY*(   7)Co   2                  0.00000    10.59426   
    72. RY*(   8)Co   2                  0.00000    30.85789   
    73. RY*(   9)Co   2                  0.00000     2.80892   
    74. RY*(  10)Co   2                  0.00000     1.21500   
    75. RY*(  11)Co   2                  0.00000     1.01540   
    76. RY*(  12)Co   2                  0.00000    10.59426   
    77. RY*(  13)Co   2                  0.00000    30.85789   
    78. RY*(  14)Co   2                  0.00000    58.60240   
    79. RY*(  15)Co   2                  0.00000   710.73181   
    80. RY*(  16)Co   2                  0.00000     0.53571   
    81. RY*(  17)Co   2                  0.00000    10.70651   
    82. RY*(  18)Co   2                  0.00000    30.88486   
    83. RY*(  19)Co   2                  0.00000     0.47609   
    84. RY*(  20)Co   2                  0.00000     1.40063   
    85. RY*(  21)Co   2                  0.00000     6.25026   
    86. RY*(  22)Co   2                  0.00000     0.58018   
    87. RY*(  23)Co   2                  0.00000     1.46643   
    88. RY*(  24)Co   2                  0.00000     6.24545   
    89. RY*(  25)Co   2                  0.00000     0.58018   
    90. RY*(  26)Co   2                  0.00000     1.46643   
    91. RY*(  27)Co   2                  0.00000     6.24545   
    92. RY*(  28)Co   2                  0.00000     0.33533   
    93. RY*(  29)Co   2                  0.00000   212.56124   
    94. RY*(  30)Co   2                  0.00000     6.25398   
    95. RY*(  31)Co   2                  0.00000     1.38001   
    96. RY*(  32)Co   2                  0.00000     1.51188   
    97. RY*(  33)Co   2                  0.00000     6.35314   
    98. BD*(   1)Co   1 -Co   2          0.00118     0.04089   
    99. BD*(   2)Co   1 -Co   2          0.00000    -0.05718   
   100. BD*(   3)Co   1 -Co   2          0.00046    -0.03424   
   101. BD*(   4)Co   1 -Co   2          0.00046    -0.03424   
   102. BD*(   5)Co   1 -Co   2          0.00283    -0.06236   
       -------------------------------
              Total Lewis   24.99402  ( 99.9761%)
        Valence non-Lewis    0.00586  (  0.0234%)
        Rydberg non-Lewis    0.00012  (  0.0005%)
       -------------------------------
            Total unit  1   25.00000  (100.0000%)
           Charge unit  1    2.00000
 Calling FoFJK, ICntrl=    100127 FMM=F ISym2X=0 I1Cent= 0 IOpClX= 1 NMat=1 NMatS=1 NMatT=0.
 Full mass-weighted force constant matrix:
 Low frequencies ---   -4.8998   -4.8998   -0.0069   -0.0057    0.0085  430.2384
 Diagonal vibrational polarizability:
        0.0000000       0.0000000       0.0000000
 Harmonic frequencies (cm**-1), IR intensities (KM/Mole), Raman scattering
 activities (A**4/AMU), depolarization ratios for plane and unpolarized
 incident light, reduced masses (AMU), force constants (mDyne/A),
 and normal coordinates:
                     1
                     A
 Frequencies --   430.2384
 Red. masses --    58.9332
 Frc consts  --     6.4273
 IR Inten    --     0.0000
  Atom  AN      X      Y      Z
     1  27     0.00   0.00   0.71
     2  27     0.00   0.00  -0.71

 -------------------
 - Thermochemistry -
 -------------------
 Temperature   298.150 Kelvin.  Pressure   1.00000 Atm.
 Atom     1 has atomic number 27 and mass  58.93320
 Atom     2 has atomic number 27 and mass  58.93320
 Molecular mass:   117.86640 amu.
 Principal axes and moments of inertia in atomic units:
                           1         2         3
     Eigenvalues --     0.00000 400.80375 400.80375
           X            0.00000   0.00000   1.00000
           Y            0.00000   1.00000   0.00000
           Z            1.00000   0.00000   0.00000
 This molecule is a prolate symmetric top.
 Rotational symmetry number  2.
 Rotational temperature (Kelvin)      0.21610
 Rotational constant (GHZ):           4.502805
 Zero-point vibrational energy       2573.4 (Joules/Mol)
                                    0.61506 (Kcal/Mol)
 Warning -- explicit consideration of   1 degrees of freedom as
           vibrations may cause significant error
 Vibrational temperatures:    619.02
          (Kelvin)
 
 Zero-point correction=                           0.000980 (Hartree/Particle)
 Thermal correction to Energy=                    0.003622
 Thermal correction to Enthalpy=                  0.004566
 Thermal correction to Gibbs Free Energy=        -0.023581
 Sum of electronic and zero-point Energies=          -2765.411751
 Sum of electronic and thermal Energies=             -2765.409109
 Sum of electronic and thermal Enthalpies=           -2765.408165
 Sum of electronic and thermal Free Energies=        -2765.436312
 
                     E (Thermal)             CV                S
                      KCal/Mol        Cal/Mol-Kelvin    Cal/Mol-Kelvin
 Total                    2.273              6.372             59.241
 Electronic               0.000              0.000              3.198
 Translational            0.889              2.981             40.208
 Rotational               0.592              1.987             14.977
 Vibrational              0.791              1.404              0.858
 Vibration     1          0.791              1.404              0.858
                       Q            Log10(Q)             Ln(Q)
 Total Bot       0.702448D+11         10.846614         24.975253
 Total V=0       0.198360D+12         11.297454         26.013348
 Vib (Bot)       0.404907D+00         -0.392645         -0.904099
 Vib (Bot)    1  0.404907D+00         -0.392645         -0.904099
 Vib (V=0)       0.114339D+01          0.058194          0.133997
 Vib (V=0)    1  0.114339D+01          0.058194          0.133997
 Electronic      0.500000D+01          0.698970          1.609438
 Translational   0.502968D+08          7.701540         17.733452
 Rotational      0.689842D+03          2.838749          6.536462
 -------------------------------------------------------------------
 Center     Atomic                   Forces (Hartrees/Bohr)
 Number     Number              X              Y              Z
 -------------------------------------------------------------------
      1       27           0.000000000    0.000000000    0.000000011
      2       27           0.000000000    0.000000000   -0.000000011
 -------------------------------------------------------------------
 Cartesian Forces:  Max     0.000000011 RMS     0.000000006

 GradGradGradGradGradGradGradGradGradGradGradGradGradGradGradGradGradGrad
 Berny optimization.
 Internal  Forces:  Max     0.000000011 RMS     0.000000011
 Search for a local minimum.
 Step number   1 out of a maximum of    2
 All quantities printed in internal units (Hartrees-Bohrs-Radians)
 Second derivative matrix not updated -- analytic derivatives used.
 The second derivative matrix:
                          R1
           R1           0.20641
     Eigenvalues ---    0.20641
 Angle between quadratic step and forces=  90.00 degrees.
 Linear search not attempted -- first point.
 Iteration  1 RMS(Cart)=  0.00000004 RMS(Int)=  0.00000000
 Variable       Old X    -DE/DX   Delta X   Delta X   Delta X     New X
                                 (Linear)    (Quad)   (Total)
    R1        3.68808   0.00000   0.00000   0.00000   0.00000   3.68808
         Item               Value     Threshold  Converged?
 Maximum Force            0.000000     0.000015     YES
 RMS     Force            0.000000     0.000010     YES
 Maximum Displacement     0.000000     0.000060     YES
 RMS     Displacement     0.000000     0.000040     YES
 Predicted change in Energy=-2.676448D-16
 Optimization completed.
    -- Stationary point found.
                           ----------------------------
                           !   Optimized Parameters   !
                           ! (Angstroms and Degrees)  !
 --------------------------                            --------------------------
 ! Name  Definition              Value          Derivative Info.                !
 --------------------------------------------------------------------------------
 ! R1    R(1,2)                  1.9517         -DE/DX =    0.0                 !
 --------------------------------------------------------------------------------
 GradGradGradGradGradGradGradGradGradGradGradGradGradGradGradGradGradGrad

 1|1|UNPC-Z-NASIRI|Freq|UB3LYP|6-311++G|Co2(5)|NASIRI|06-Dec-2020|0||#N
  Geom=AllCheck Guess=TCheck SCRF=Check GenChk UB3LYP/6-311++G Freq||Ti
 tle||0,5|Co,0.,0.,0.0241748261|Co,0.,0.,1.9758251739||Version=IA32W-G0
 9RevA.02|HF=-2765.4127312|S2=6.094102|S2-1=0.|S2A=6.002995|RMSD=4.422e
 -009|RMSF=6.069e-009|Thermal=0.0036217|Dipole=0.,0.,0.0000004|DipoleDe
 riv=0.0000002,0.,0.,0.,0.0000002,0.,0.,0.,0.0000016,-0.0000002,0.,0.,0
 .,-0.0000002,0.,0.,0.,-0.0000016|Polar=71.488913,0.,71.488913,-0.00000
 02,0.,109.8028526|PG=D*H [C*(Co1.Co1)]|NImag=0||-0.00002677,0.,-0.0000
 2677,0.,0.,0.20641434,0.00002677,0.,0.,-0.00002677,0.,0.00002677,0.,0.
 ,-0.00002677,0.,0.,-0.20641434,0.,0.,0.20641434||0.,0.,-0.00000001,0.,
 0.,0.00000001|||@


 WHEN YOU REACH FOR THE STARS, YOU MAY NOT QUITE GET ONE,
 BUT YOU WON'T COME UP WITH A HANDFUL OF MUD, EITHER.

                                         -- LEO BURNETT (AD AGENCY HEAD)
 Job cpu time:  0 days  0 hours  1 minutes 35.0 seconds.
 File lengths (MBytes):  RWF=     14 Int=      0 D2E=      0 Chk=      2 Scr=      1
 Normal termination of Gaussian 09 at Sun Dec 06 20:39:15 2020.
