 Entering Gaussian System, Link 0=g09.exe
 Input=Co2_7.gjf
 Output=Co2_7.out
 Initial command:
 E:\G09W\l1.exe .\gxx.inp Co2_7.out /scrdir=.\
 Entering Link 1 = E:\G09W\l1.exe PID=      3656.
  
 Copyright (c) 1988,1990,1992,1993,1995,1998,2003,2009, Gaussian, Inc.
                  All Rights Reserved.
  
 This is part of the Gaussian(R) 09 program.  It is based on
 the Gaussian(R) 03 system (copyright 2003, Gaussian, Inc.),
 the Gaussian(R) 98 system (copyright 1998, Gaussian, Inc.),
 the Gaussian(R) 94 system (copyright 1995, Gaussian, Inc.),
 the Gaussian 92(TM) system (copyright 1992, Gaussian, Inc.),
 the Gaussian 90(TM) system (copyright 1990, Gaussian, Inc.),
 the Gaussian 88(TM) system (copyright 1988, Gaussian, Inc.),
 the Gaussian 86(TM) system (copyright 1986, Carnegie Mellon
 University), and the Gaussian 82(TM) system (copyright 1983,
 Carnegie Mellon University). Gaussian is a federally registered
 trademark of Gaussian, Inc.
  
 This software contains proprietary and confidential information,
 including trade secrets, belonging to Gaussian, Inc.
  
 This software is provided under written license and may be
 used, copied, transmitted, or stored only in accord with that
 written license.
  
 The following legend is applicable only to US Government
 contracts under FAR:
  
                    RESTRICTED RIGHTS LEGEND
  
 Use, reproduction and disclosure by the US Government is
 subject to restrictions as set forth in subparagraphs (a)
 and (c) of the Commercial Computer Software - Restricted
 Rights clause in FAR 52.227-19.
  
 Gaussian, Inc.
 340 Quinnipiac St., Bldg. 40, Wallingford CT 06492
  
  
 ---------------------------------------------------------------
 Warning -- This program may not be used in any manner that
 competes with the business of Gaussian, Inc. or will provide
 assistance to any competitor of Gaussian, Inc.  The licensee
 of this program is prohibited from giving any competitor of
 Gaussian, Inc. access to this program.  By using this program,
 the user acknowledges that Gaussian, Inc. is engaged in the
 business of creating and licensing software in the field of
 computational chemistry and represents and warrants to the
 licensee that it is not a competitor of Gaussian, Inc. and that
 it will not use this program in any manner prohibited above.
 ---------------------------------------------------------------
  

 Cite this work as:
 Gaussian 09, Revision A.02,
 M. J. Frisch, G. W. Trucks, H. B. Schlegel, G. E. Scuseria, 
 M. A. Robb, J. R. Cheeseman, G. Scalmani, V. Barone, B. Mennucci, 
 G. A. Petersson, H. Nakatsuji, M. Caricato, X. Li, H. P. Hratchian, 
 A. F. Izmaylov, J. Bloino, G. Zheng, J. L. Sonnenberg, M. Hada, 
 M. Ehara, K. Toyota, R. Fukuda, J. Hasegawa, M. Ishida, T. Nakajima, 
 Y. Honda, O. Kitao, H. Nakai, T. Vreven, J. A. Montgomery, Jr., 
 J. E. Peralta, F. Ogliaro, M. Bearpark, J. J. Heyd, E. Brothers, 
 K. N. Kudin, V. N. Staroverov, R. Kobayashi, J. Normand, 
 K. Raghavachari, A. Rendell, J. C. Burant, S. S. Iyengar, J. Tomasi, 
 M. Cossi, N. Rega, J. M. Millam, M. Klene, J. E. Knox, J. B. Cross, 
 V. Bakken, C. Adamo, J. Jaramillo, R. Gomperts, R. E. Stratmann, 
 O. Yazyev, A. J. Austin, R. Cammi, C. Pomelli, J. W. Ochterski, 
 R. L. Martin, K. Morokuma, V. G. Zakrzewski, G. A. Voth, 
 P. Salvador, J. J. Dannenberg, S. Dapprich, A. D. Daniels, 
 O. Farkas, J. B. Foresman, J. V. Ortiz, J. Cioslowski, 
 and D. J. Fox, Gaussian, Inc., Wallingford CT, 2009.
 
 ******************************************
 Gaussian 09:  IA32W-G09RevA.02 11-Jun-2009
                06-Dec-2020 
 ******************************************
 %nprocshared=4
 Will use up to    4 processors via shared memory.
 %mem=1GB
 ----------------------------------------------------------------------
 # opt=(tight,maxcycles=1500) freq b3lyp/6-311++g nosymm pop=(full,nbo)
  polar int=ultrafine scf=xqc
 ----------------------------------------------------------------------
 1/6=1500,7=10,14=-1,18=20,19=15,26=3,38=1/1,3;
 2/9=110,12=2,15=1,17=6,18=5,40=1/2;
 3/5=4,6=6,7=1010,11=2,16=1,25=1,30=1,71=1,74=-5,75=-5/1,2,3;
 4//1;
 5/5=2,8=3,13=1,38=5,98=1/2,8;
 6/7=3,28=1/1,7;
 7/30=1/1,2,3,16;
 1/6=1500,7=10,14=-1,18=20,19=15/3(2);
 2/9=110,15=1/2;
 99//99;
 2/9=110,15=1/2;
 3/5=4,6=6,7=1010,11=2,16=1,25=1,30=1,71=1,74=-5,75=-5/1,2,3;
 4/5=5,16=3/1;
 5/5=2,8=3,13=1,38=5,98=1/2,8;
 7/30=1/1,2,3,16;
 1/6=1500,7=10,14=-1,18=20,19=15/3(-5);
 2/9=110,15=1/2;
 6/7=3,19=2,28=1/1,7;
 99/9=1/99;
 -----
 Title
 -----
 Symbolic Z-matrix:
 Charge =  0 Multiplicity = 7
 Co
 Co                   1    B1
       Variables:
  B1                    2.                       
 

 GradGradGradGradGradGradGradGradGradGradGradGradGradGradGradGradGradGrad
 Berny optimization.
 Initialization pass.
                           ----------------------------
                           !    Initial Parameters    !
                           ! (Angstroms and Degrees)  !
 --------------------------                            --------------------------
 ! Name  Definition              Value          Derivative Info.                !
 --------------------------------------------------------------------------------
 ! R1    R(1,2)                  2.0            estimate D2E/DX2                !
 --------------------------------------------------------------------------------
 Trust Radius=3.00D-01 FncErr=1.00D-07 GrdErr=1.00D-06
 Number of steps in this run= 100 maximum allowed number of steps= 100.
 GradGradGradGradGradGradGradGradGradGradGradGradGradGradGradGradGradGrad

                          Input orientation:                          
 ---------------------------------------------------------------------
 Center     Atomic      Atomic             Coordinates (Angstroms)
 Number     Number       Type             X           Y           Z
 ---------------------------------------------------------------------
      1         27           0        0.000000    0.000000    0.000000
      2         27           0        0.000000    0.000000    2.000000
 ---------------------------------------------------------------------
 Symmetry turned off by external request.
 Stoichiometry    Co2(7)
 Framework group  D*H[C*(Co.Co)]
 Deg. of freedom     1
 Full point group                 D*H     NOp   8
 Rotational constants (GHZ):      0.0000000      4.2877277      4.2877277
 Standard basis: 6-311++G (5D, 7F)
 Integral buffers will be    262144 words long.
 Raffenetti 2 integral format.
 Two-electron integral symmetry is turned off.
   102 basis functions,   168 primitive gaussians,   110 cartesian basis functions
    30 alpha electrons       24 beta electrons
       nuclear repulsion energy       192.8850925311 Hartrees.
 NAtoms=    2 NActive=    2 NUniq=    2 SFac= 7.50D-01 NAtFMM=   80 NAOKFM=F Big=F
 One-electron integrals computed using PRISM.
 NBasis=   102 RedAO= T  NBF=   102
 NBsUse=   102 1.00D-06 NBFU=   102
 Harris functional with IExCor=  402 diagonalized for initial guess.
 ExpMin= 1.33D-02 ExpMax= 2.71D+05 ExpMxC= 9.06D+03 IAcc=3 IRadAn=         5 AccDes= 0.00D+00
 HarFok:  IExCor=  402 AccDes= 0.00D+00 IRadAn=         5 IDoV= 1
 ScaDFX=  1.000000  1.000000  1.000000  1.000000
 FoFCou: FMM=F IPFlag=           0 FMFlag=      100000 FMFlg1=           0
         NFxFlg=           0 DoJE=T BraDBF=F KetDBF=T FulRan=T
         Omega=  0.000000  0.000000  1.000000  0.000000  0.000000 ICntrl=     500 IOpCl=  0
         NMat0=    1 NMatS0=    1 NMatT0=    0 NMatD0=    1 NMtDS0=    0 NMtDT0=    0
         I1Cent=           4 NGrid=           0.
 Symmetry not used in FoFCou.
 Initial guess <Sx>= 0.0000 <Sy>= 0.0000 <Sz>= 3.0000 <S**2>=12.0000 S= 3.0000
 Requested convergence on RMS density matrix=1.00D-08 within  64 cycles.
 Requested convergence on MAX density matrix=1.00D-06.
 Requested convergence on             energy=1.00D-06.
 No special actions if energy rises.
 Keep R1 and R2 ints in memory in canonical form, NReq=38309558.
 SCF Done:  E(UB3LYP) =  -2765.41723909     A.U. after   13 cycles
             Convg  =    0.2706D-08             -V/T =  2.0008
 <Sx>= 0.0000 <Sy>= 0.0000 <Sz>= 3.0000 <S**2>=12.0786 S= 3.0112
 <L.S>= 0.000000000000E+00
 Annihilation of the first spin contaminant:
 S**2 before annihilation    12.0786,   after    12.0014
 QCSCF skips out because SCF is already converged.

 **********************************************************************

            Population analysis using the SCF density.

 **********************************************************************

 Alpha  occ. eigenvalues -- -277.56304-277.56304 -32.89512 -32.89511 -28.55405
 Alpha  occ. eigenvalues --  -28.55404 -28.54773 -28.54773 -28.54772 -28.54772
 Alpha  occ. eigenvalues --   -3.84435  -3.83942  -2.54910  -2.52430  -2.52331
 Alpha  occ. eigenvalues --   -2.52331  -2.52043  -2.52043  -0.43075  -0.41280
 Alpha  occ. eigenvalues --   -0.41280  -0.39489  -0.38113  -0.35871  -0.34991
 Alpha  occ. eigenvalues --   -0.34991  -0.34364  -0.34259  -0.26828  -0.16036
 Alpha virt. eigenvalues --   -0.06012  -0.06012  -0.02923   0.01393   0.01474
 Alpha virt. eigenvalues --    0.02594   0.02594   0.10340   0.13632   0.15219
 Alpha virt. eigenvalues --    0.15219   0.18835   0.20152   0.20823   0.21232
 Alpha virt. eigenvalues --    0.21787   0.21787   0.28974   0.28974   0.30957
 Alpha virt. eigenvalues --    0.31246   0.32004   0.41940   0.44422   0.44422
 Alpha virt. eigenvalues --    0.71173   1.26521   1.26521   1.30229   1.36080
 Alpha virt. eigenvalues --    1.37739   1.44008   1.45697   1.57060   1.57060
 Alpha virt. eigenvalues --    1.60146   1.60430   1.60430   1.69023   1.71298
 Alpha virt. eigenvalues --    1.71298   2.13344   3.00423   3.28605   6.05596
 Alpha virt. eigenvalues --    6.05596   6.05747   6.08930   6.11453   6.14622
 Alpha virt. eigenvalues --    6.21555   6.21555   6.21609   6.34368   7.93186
 Alpha virt. eigenvalues --    7.99654   7.99654   8.09509   8.09509   8.46467
 Alpha virt. eigenvalues --   27.36070  27.60047  33.72143  33.75771  33.75771
 Alpha virt. eigenvalues --   33.83063  33.83063  34.10206 153.15594 153.36284
 Alpha virt. eigenvalues --  803.88941 804.10330
  Beta  occ. eigenvalues -- -277.56244-277.56244 -32.83584 -32.83583 -28.50429
  Beta  occ. eigenvalues --  -28.50425 -28.50031 -28.50031 -28.50029 -28.50029
  Beta  occ. eigenvalues --   -3.71204  -3.70632  -2.40821  -2.38611  -2.38611
  Beta  occ. eigenvalues --   -2.38189  -2.38189  -2.37752  -0.30387  -0.30153
  Beta  occ. eigenvalues --   -0.28316  -0.26914  -0.26914  -0.23239
  Beta virt. eigenvalues --   -0.13268  -0.12872  -0.12872  -0.10785  -0.08162
  Beta virt. eigenvalues --   -0.08056  -0.04655  -0.04655  -0.01318   0.02046
  Beta virt. eigenvalues --    0.02571   0.04374   0.04374   0.11450   0.14172
  Beta virt. eigenvalues --    0.16430   0.16430   0.21355   0.21725   0.22029
  Beta virt. eigenvalues --    0.23843   0.24342   0.24342   0.31711   0.31711
  Beta virt. eigenvalues --    0.32508   0.34030   0.35214   0.44511   0.46459
  Beta virt. eigenvalues --    0.46459   0.73816   1.31597   1.31597   1.34790
  Beta virt. eigenvalues --    1.40345   1.44638   1.48486   1.52808   1.63021
  Beta virt. eigenvalues --    1.63021   1.65596   1.65596   1.66112   1.74692
  Beta virt. eigenvalues --    1.76437   1.76437   2.18886   3.07523   3.35560
  Beta virt. eigenvalues --    6.13679   6.14880   6.14880   6.18934   6.19384
  Beta virt. eigenvalues --    6.24604   6.30696   6.30835   6.30835   6.43200
  Beta virt. eigenvalues --    8.01848   8.08100   8.08100   8.17925   8.17925
  Beta virt. eigenvalues --    8.55023  27.44330  27.68291  33.79216  33.82505
  Beta virt. eigenvalues --   33.82505  33.89790  33.89790  34.17259 153.18795
  Beta virt. eigenvalues --  153.39486 803.89639 804.11028
     Alpha Molecular Orbital Coefficients:
                           1         2         3         4         5
                           O         O         O         O         O
     Eigenvalues --  -277.56304-277.56304 -32.89512 -32.89511 -28.55405
   1 1   Co 1S          0.34621   0.34369  -0.11735  -0.11734   0.00020
   2        2S          0.28585   0.28377  -0.17299  -0.17298   0.00029
   3        3S          0.14418   0.14314  -0.06415  -0.06411   0.00012
   4        4S          0.00972   0.00964   0.35312   0.35299  -0.00074
   5        5S         -0.00150  -0.00149   0.43246   0.43262  -0.00054
   6        6S          0.00041   0.00039   0.03845   0.03799  -0.00005
   7        7S         -0.00020  -0.00017  -0.00836  -0.00751   0.00006
   8        8S          0.00023   0.00004   0.00755   0.00157  -0.00082
   9        9S          0.00009  -0.00003   0.00291  -0.00090  -0.00235
  10       10S          0.00002   0.00001   0.00060   0.00025   0.00008
  11       11PX         0.00000   0.00000   0.00000   0.00000   0.00000
  12       11PY         0.00000   0.00000   0.00000   0.00000   0.00000
  13       11PZ         0.00000   0.00000   0.00070   0.00071   0.52807
  14       12PX         0.00000   0.00000   0.00000   0.00000   0.00000
  15       12PY         0.00000   0.00000   0.00000   0.00000   0.00000
  16       12PZ         0.00000   0.00000   0.00048   0.00043   0.20967
  17       13PX         0.00000   0.00000   0.00000   0.00000   0.00000
  18       13PY         0.00000   0.00000   0.00000   0.00000   0.00000
  19       13PZ        -0.00001   0.00000  -0.00002   0.00008   0.04173
  20       14PX         0.00000   0.00000   0.00000   0.00000   0.00000
  21       14PY         0.00000   0.00000   0.00000   0.00000   0.00000
  22       14PZ         0.00001   0.00000   0.00025   0.00010  -0.00419
  23       15PX         0.00000   0.00000   0.00000   0.00000   0.00000
  24       15PY         0.00000   0.00000   0.00000   0.00000   0.00000
  25       15PZ        -0.00001  -0.00001  -0.00041  -0.00022   0.00189
  26       16PX         0.00000   0.00000   0.00000   0.00000   0.00000
  27       16PY         0.00000   0.00000   0.00000   0.00000   0.00000
  28       16PZ         0.00016   0.00000   0.00512   0.00009  -0.00133
  29       17PX         0.00000   0.00000   0.00000   0.00000   0.00000
  30       17PY         0.00000   0.00000   0.00000   0.00000   0.00000
  31       17PZ         0.00005   0.00000   0.00153   0.00002  -0.00078
  32       18D 0        0.00000   0.00000   0.00015   0.00016   0.00019
  33       18D+1        0.00000   0.00000   0.00000   0.00000   0.00000
  34       18D-1        0.00000   0.00000   0.00000   0.00000   0.00000
  35       18D+2        0.00000   0.00000   0.00000   0.00000   0.00000
  36       18D-2        0.00000   0.00000   0.00000   0.00000   0.00000
  37       19D 0        0.00000   0.00000  -0.00013  -0.00013  -0.00014
  38       19D+1        0.00000   0.00000   0.00000   0.00000   0.00000
  39       19D-1        0.00000   0.00000   0.00000   0.00000   0.00000
  40       19D+2        0.00000   0.00000   0.00000   0.00000   0.00000
  41       19D-2        0.00000   0.00000   0.00000   0.00000   0.00000
  42       20D 0        0.00001   0.00000   0.00040   0.00010   0.00023
  43       20D+1        0.00000   0.00000   0.00000   0.00000   0.00000
  44       20D-1        0.00000   0.00000   0.00000   0.00000   0.00000
  45       20D+2        0.00000   0.00000   0.00000   0.00000   0.00000
  46       20D-2        0.00000   0.00000   0.00000   0.00000   0.00000
  47       21D 0        0.00005   0.00000   0.00177   0.00013  -0.00045
  48       21D+1        0.00000   0.00000   0.00000   0.00000   0.00000
  49       21D-1        0.00000   0.00000   0.00000   0.00000   0.00000
  50       21D+2        0.00000   0.00000   0.00000   0.00000   0.00000
  51       21D-2        0.00000   0.00000   0.00000   0.00000   0.00000
  52 2   Co 1S         -0.34369   0.34621   0.11734  -0.11735  -0.00020
  53        2S         -0.28377   0.28585   0.17297  -0.17300  -0.00029
  54        3S         -0.14313   0.14419   0.06414  -0.06412  -0.00012
  55        4S         -0.00965   0.00971  -0.35309   0.35302   0.00074
  56        5S          0.00149  -0.00150  -0.43242   0.43266   0.00054
  57        6S         -0.00040   0.00039  -0.03845   0.03800   0.00005
  58        7S          0.00020  -0.00017   0.00836  -0.00751  -0.00006
  59        8S         -0.00022   0.00004  -0.00755   0.00157   0.00082
  60        9S         -0.00009  -0.00002  -0.00291  -0.00090   0.00235
  61       10S         -0.00002   0.00001  -0.00060   0.00025  -0.00008
  62       11PX         0.00000   0.00000   0.00000   0.00000   0.00000
  63       11PY         0.00000   0.00000   0.00000   0.00000   0.00000
  64       11PZ         0.00000   0.00000   0.00070  -0.00071   0.52803
  65       12PX         0.00000   0.00000   0.00000   0.00000   0.00000
  66       12PY         0.00000   0.00000   0.00000   0.00000   0.00000
  67       12PZ         0.00000   0.00000   0.00048  -0.00043   0.20966
  68       13PX         0.00000   0.00000   0.00000   0.00000   0.00000
  69       13PY         0.00000   0.00000   0.00000   0.00000   0.00000
  70       13PZ        -0.00001   0.00000  -0.00002  -0.00008   0.04173
  71       14PX         0.00000   0.00000   0.00000   0.00000   0.00000
  72       14PY         0.00000   0.00000   0.00000   0.00000   0.00000
  73       14PZ         0.00001   0.00000   0.00025  -0.00010  -0.00419
  74       15PX         0.00000   0.00000   0.00000   0.00000   0.00000
  75       15PY         0.00000   0.00000   0.00000   0.00000   0.00000
  76       15PZ        -0.00001   0.00001  -0.00041   0.00022   0.00189
  77       16PX         0.00000   0.00000   0.00000   0.00000   0.00000
  78       16PY         0.00000   0.00000   0.00000   0.00000   0.00000
  79       16PZ         0.00016   0.00000   0.00512  -0.00009  -0.00133
  80       17PX         0.00000   0.00000   0.00000   0.00000   0.00000
  81       17PY         0.00000   0.00000   0.00000   0.00000   0.00000
  82       17PZ         0.00005   0.00000   0.00153  -0.00002  -0.00078
  83       18D 0        0.00000   0.00000  -0.00015   0.00016  -0.00019
  84       18D+1        0.00000   0.00000   0.00000   0.00000   0.00000
  85       18D-1        0.00000   0.00000   0.00000   0.00000   0.00000
  86       18D+2        0.00000   0.00000   0.00000   0.00000   0.00000
  87       18D-2        0.00000   0.00000   0.00000   0.00000   0.00000
  88       19D 0        0.00000   0.00000   0.00013  -0.00013   0.00014
  89       19D+1        0.00000   0.00000   0.00000   0.00000   0.00000
  90       19D-1        0.00000   0.00000   0.00000   0.00000   0.00000
  91       19D+2        0.00000   0.00000   0.00000   0.00000   0.00000
  92       19D-2        0.00000   0.00000   0.00000   0.00000   0.00000
  93       20D 0       -0.00001   0.00000  -0.00040   0.00010  -0.00023
  94       20D+1        0.00000   0.00000   0.00000   0.00000   0.00000
  95       20D-1        0.00000   0.00000   0.00000   0.00000   0.00000
  96       20D+2        0.00000   0.00000   0.00000   0.00000   0.00000
  97       20D-2        0.00000   0.00000   0.00000   0.00000   0.00000
  98       21D 0       -0.00005   0.00000  -0.00177   0.00013   0.00045
  99       21D+1        0.00000   0.00000   0.00000   0.00000   0.00000
 100       21D-1        0.00000   0.00000   0.00000   0.00000   0.00000
 101       21D+2        0.00000   0.00000   0.00000   0.00000   0.00000
 102       21D-2        0.00000   0.00000   0.00000   0.00000   0.00000
                           6         7         8         9        10
                           O         O         O         O         O
     Eigenvalues --   -28.55404 -28.54773 -28.54773 -28.54772 -28.54772
   1 1   Co 1S         -0.00020   0.00000   0.00000   0.00000   0.00000
   2        2S         -0.00029   0.00000   0.00000   0.00000   0.00000
   3        3S         -0.00011   0.00000   0.00000   0.00000   0.00000
   4        4S          0.00072   0.00000   0.00000   0.00000   0.00000
   5        5S          0.00056   0.00000   0.00000   0.00000   0.00000
   6        6S          0.00003   0.00000   0.00000   0.00000   0.00000
   7        7S         -0.00007   0.00000   0.00000   0.00000   0.00000
   8        8S         -0.00021   0.00000   0.00000   0.00000   0.00000
   9        9S          0.00020   0.00000   0.00000   0.00000   0.00000
  10       10S         -0.00005   0.00000   0.00000   0.00000   0.00000
  11       11PX         0.00000   0.44766   0.28032   0.43865  -0.29399
  12       11PY         0.00000  -0.28032   0.44766   0.29399   0.43865
  13       11PZ        -0.52802   0.00000   0.00000   0.00000   0.00000
  14       12PX         0.00000   0.17772   0.11129   0.17415  -0.11672
  15       12PY         0.00000  -0.11129   0.17772   0.11672   0.17415
  16       12PZ        -0.20972   0.00000   0.00000   0.00000   0.00000
  17       13PX         0.00000   0.03521   0.02205   0.03447  -0.02310
  18       13PY         0.00000  -0.02205   0.03521   0.02310   0.03447
  19       13PZ        -0.04154   0.00000   0.00000   0.00000   0.00000
  20       14PX         0.00000  -0.00333  -0.00209  -0.00321   0.00215
  21       14PY         0.00000   0.00209  -0.00333  -0.00215  -0.00321
  22       14PZ         0.00387   0.00000   0.00000   0.00000   0.00000
  23       15PX         0.00000   0.00140   0.00087   0.00131  -0.00088
  24       15PY         0.00000  -0.00087   0.00140   0.00088   0.00131
  25       15PZ        -0.00162   0.00000   0.00000   0.00000   0.00000
  26       16PX         0.00000  -0.00054  -0.00034  -0.00031   0.00021
  27       16PY         0.00000   0.00034  -0.00054  -0.00021  -0.00031
  28       16PZ         0.00045   0.00000   0.00000   0.00000   0.00000
  29       17PX         0.00000   0.00011   0.00007   0.00010  -0.00007
  30       17PY         0.00000  -0.00007   0.00011   0.00007   0.00010
  31       17PZ        -0.00012   0.00000   0.00000   0.00000   0.00000
  32       18D 0       -0.00016   0.00000   0.00000   0.00000   0.00000
  33       18D+1        0.00000   0.00013   0.00008   0.00011  -0.00008
  34       18D-1        0.00000  -0.00008   0.00013   0.00008   0.00011
  35       18D+2        0.00000   0.00000   0.00000   0.00000   0.00000
  36       18D-2        0.00000   0.00000   0.00000   0.00000   0.00000
  37       19D 0        0.00002   0.00000   0.00000   0.00000   0.00000
  38       19D+1        0.00000  -0.00006  -0.00004  -0.00003   0.00002
  39       19D-1        0.00000   0.00004  -0.00006  -0.00002  -0.00003
  40       19D+2        0.00000   0.00000   0.00000   0.00000   0.00000
  41       19D-2        0.00000   0.00000   0.00000   0.00000   0.00000
  42       20D 0        0.00004   0.00000   0.00000   0.00000   0.00000
  43       20D+1        0.00000   0.00005   0.00003   0.00000   0.00000
  44       20D-1        0.00000  -0.00003   0.00005   0.00000   0.00000
  45       20D+2        0.00000   0.00000   0.00000   0.00000   0.00000
  46       20D-2        0.00000   0.00000   0.00000   0.00000   0.00000
  47       21D 0        0.00013   0.00000   0.00000   0.00000   0.00000
  48       21D+1        0.00000  -0.00020  -0.00012   0.00001  -0.00001
  49       21D-1        0.00000   0.00012  -0.00020   0.00001   0.00001
  50       21D+2        0.00000   0.00000   0.00000   0.00000   0.00000
  51       21D-2        0.00000   0.00000   0.00000   0.00000   0.00000
  52 2   Co 1S         -0.00020   0.00000   0.00000   0.00000   0.00000
  53        2S         -0.00029   0.00000   0.00000   0.00000   0.00000
  54        3S         -0.00011   0.00000   0.00000   0.00000   0.00000
  55        4S          0.00072   0.00000   0.00000   0.00000   0.00000
  56        5S          0.00056   0.00000   0.00000   0.00000   0.00000
  57        6S          0.00003   0.00000   0.00000   0.00000   0.00000
  58        7S         -0.00007   0.00000   0.00000   0.00000   0.00000
  59        8S         -0.00021   0.00000   0.00000   0.00000   0.00000
  60        9S          0.00020   0.00000   0.00000   0.00000   0.00000
  61       10S         -0.00005   0.00000   0.00000   0.00000   0.00000
  62       11PX         0.00000  -0.44755  -0.28025   0.43875  -0.29406
  63       11PY         0.00000   0.28025  -0.44755   0.29406   0.43875
  64       11PZ         0.52806   0.00000   0.00000   0.00000   0.00000
  65       12PX         0.00000  -0.17768  -0.11126   0.17419  -0.11675
  66       12PY         0.00000   0.11126  -0.17768   0.11675   0.17419
  67       12PZ         0.20974   0.00000   0.00000   0.00000   0.00000
  68       13PX         0.00000  -0.03520  -0.02204   0.03448  -0.02311
  69       13PY         0.00000   0.02204  -0.03520   0.02311   0.03448
  70       13PZ         0.04155   0.00000   0.00000   0.00000   0.00000
  71       14PX         0.00000   0.00333   0.00208  -0.00321   0.00215
  72       14PY         0.00000  -0.00208   0.00333  -0.00215  -0.00321
  73       14PZ        -0.00387   0.00000   0.00000   0.00000   0.00000
  74       15PX         0.00000  -0.00140  -0.00087   0.00131  -0.00088
  75       15PY         0.00000   0.00087  -0.00140   0.00088   0.00131
  76       15PZ         0.00162   0.00000   0.00000   0.00000   0.00000
  77       16PX         0.00000   0.00054   0.00034  -0.00031   0.00021
  78       16PY         0.00000  -0.00034   0.00054  -0.00021  -0.00031
  79       16PZ        -0.00045   0.00000   0.00000   0.00000   0.00000
  80       17PX         0.00000  -0.00011  -0.00007   0.00010  -0.00007
  81       17PY         0.00000   0.00007  -0.00011   0.00007   0.00010
  82       17PZ         0.00012   0.00000   0.00000   0.00000   0.00000
  83       18D 0       -0.00016   0.00000   0.00000   0.00000   0.00000
  84       18D+1        0.00000   0.00013   0.00008  -0.00011   0.00008
  85       18D-1        0.00000  -0.00008   0.00013  -0.00008  -0.00011
  86       18D+2        0.00000   0.00000   0.00000   0.00000   0.00000
  87       18D-2        0.00000   0.00000   0.00000   0.00000   0.00000
  88       19D 0        0.00002   0.00000   0.00000   0.00000   0.00000
  89       19D+1        0.00000  -0.00006  -0.00004   0.00003  -0.00002
  90       19D-1        0.00000   0.00004  -0.00006   0.00002   0.00003
  91       19D+2        0.00000   0.00000   0.00000   0.00000   0.00000
  92       19D-2        0.00000   0.00000   0.00000   0.00000   0.00000
  93       20D 0        0.00004   0.00000   0.00000   0.00000   0.00000
  94       20D+1        0.00000   0.00005   0.00003   0.00000   0.00000
  95       20D-1        0.00000  -0.00003   0.00005   0.00000   0.00000
  96       20D+2        0.00000   0.00000   0.00000   0.00000   0.00000
  97       20D-2        0.00000   0.00000   0.00000   0.00000   0.00000
  98       21D 0        0.00013   0.00000   0.00000   0.00000   0.00000
  99       21D+1        0.00000  -0.00020  -0.00012  -0.00001   0.00001
 100       21D-1        0.00000   0.00012  -0.00020  -0.00001  -0.00001
 101       21D+2        0.00000   0.00000   0.00000   0.00000   0.00000
 102       21D-2        0.00000   0.00000   0.00000   0.00000   0.00000
                          11        12        13        14        15
                           O         O         O         O         O
     Eigenvalues --    -3.84435  -3.83942  -2.54910  -2.52430  -2.52331
   1 1   Co 1S          0.04522   0.04533  -0.00079   0.00000   0.00000
   2        2S          0.07043   0.07062  -0.00125   0.00001   0.00000
   3        3S          0.03048   0.03052  -0.00050  -0.00003   0.00000
   4        4S         -0.22096  -0.22139   0.00389   0.00016   0.00000
   5        5S         -0.34688  -0.34811   0.00623  -0.00067   0.00000
   6        6S          0.48463   0.48691  -0.00912   0.00248   0.00000
   7        7S          0.40848   0.40887  -0.00775  -0.00164   0.00000
   8        8S          0.01314   0.01723   0.00194  -0.00767   0.00000
   9        9S         -0.00531  -0.00962  -0.00097  -0.00818   0.00000
  10       10S          0.00124   0.00193   0.00017  -0.00124   0.00000
  11       11PX         0.00000   0.00000   0.00000   0.00000  -0.17657
  12       11PY         0.00000   0.00000   0.00000   0.00000  -0.12858
  13       11PZ        -0.00265  -0.00173  -0.21704  -0.22018   0.00000
  14       12PX         0.00000   0.00000   0.00000   0.00000  -0.05423
  15       12PY         0.00000   0.00000   0.00000   0.00000  -0.03949
  16       12PZ        -0.00115  -0.00065  -0.06695  -0.06781   0.00000
  17       13PX         0.00000   0.00000   0.00000   0.00000   0.21540
  18       13PY         0.00000   0.00000   0.00000   0.00000   0.15685
  19       13PZ         0.00396   0.00221   0.26527   0.26926   0.00000
  20       14PX         0.00000   0.00000   0.00000   0.00000   0.30796
  21       14PY         0.00000   0.00000   0.00000   0.00000   0.22424
  22       14PZ         0.00371   0.00393   0.37687   0.38437   0.00000
  23       15PX         0.00000   0.00000   0.00000   0.00000   0.13991
  24       15PY         0.00000   0.00000   0.00000   0.00000   0.10188
  25       15PZ         0.00230  -0.00093   0.17440   0.17250   0.00000
  26       16PX         0.00000   0.00000   0.00000   0.00000   0.00425
  27       16PY         0.00000   0.00000   0.00000   0.00000   0.00310
  28       16PZ        -0.00014   0.00357   0.00508  -0.00076   0.00000
  29       17PX         0.00000   0.00000   0.00000   0.00000  -0.00048
  30       17PY         0.00000   0.00000   0.00000   0.00000  -0.00035
  31       17PZ        -0.00003  -0.00163  -0.00131  -0.00414   0.00000
  32       18D 0        0.00128   0.00098   0.00316   0.00133   0.00000
  33       18D+1        0.00000   0.00000   0.00000   0.00000   0.00151
  34       18D-1        0.00000   0.00000   0.00000   0.00000   0.00110
  35       18D+2        0.00000   0.00000   0.00000   0.00000   0.00000
  36       18D-2        0.00000   0.00000   0.00000   0.00000   0.00000
  37       19D 0        0.00125   0.00101   0.00318   0.00051   0.00000
  38       19D+1        0.00000   0.00000   0.00000   0.00000   0.00108
  39       19D-1        0.00000   0.00000   0.00000   0.00000   0.00079
  40       19D+2        0.00000   0.00000   0.00000   0.00000   0.00000
  41       19D-2        0.00000   0.00000   0.00000   0.00000   0.00000
  42       20D 0        0.00117  -0.00073   0.00272  -0.00057   0.00000
  43       20D+1        0.00000   0.00000   0.00000   0.00000   0.00069
  44       20D-1        0.00000   0.00000   0.00000   0.00000   0.00050
  45       20D+2        0.00000   0.00000   0.00000   0.00000   0.00000
  46       20D-2        0.00000   0.00000   0.00000   0.00000   0.00000
  47       21D 0        0.00002   0.00130  -0.00095  -0.00239   0.00000
  48       21D+1        0.00000   0.00000   0.00000   0.00000  -0.00014
  49       21D-1        0.00000   0.00000   0.00000   0.00000  -0.00010
  50       21D+2        0.00000   0.00000   0.00000   0.00000   0.00000
  51       21D-2        0.00000   0.00000   0.00000   0.00000   0.00000
  52 2   Co 1S          0.04522  -0.04533  -0.00079   0.00000   0.00000
  53        2S          0.07043  -0.07062  -0.00125  -0.00001   0.00000
  54        3S          0.03048  -0.03052  -0.00050   0.00003   0.00000
  55        4S         -0.22096   0.22139   0.00389  -0.00016   0.00000
  56        5S         -0.34688   0.34811   0.00623   0.00067   0.00000
  57        6S          0.48463  -0.48691  -0.00912  -0.00248   0.00000
  58        7S          0.40848  -0.40887  -0.00775   0.00164   0.00000
  59        8S          0.01314  -0.01723   0.00194   0.00767   0.00000
  60        9S         -0.00531   0.00962  -0.00097   0.00818   0.00000
  61       10S          0.00124  -0.00193   0.00017   0.00124   0.00000
  62       11PX         0.00000   0.00000   0.00000   0.00000  -0.17657
  63       11PY         0.00000   0.00000   0.00000   0.00000  -0.12858
  64       11PZ         0.00265  -0.00173   0.21704  -0.22018   0.00000
  65       12PX         0.00000   0.00000   0.00000   0.00000  -0.05423
  66       12PY         0.00000   0.00000   0.00000   0.00000  -0.03949
  67       12PZ         0.00115  -0.00065   0.06695  -0.06781   0.00000
  68       13PX         0.00000   0.00000   0.00000   0.00000   0.21540
  69       13PY         0.00000   0.00000   0.00000   0.00000   0.15685
  70       13PZ        -0.00396   0.00221  -0.26527   0.26926   0.00000
  71       14PX         0.00000   0.00000   0.00000   0.00000   0.30796
  72       14PY         0.00000   0.00000   0.00000   0.00000   0.22424
  73       14PZ        -0.00371   0.00393  -0.37687   0.38437   0.00000
  74       15PX         0.00000   0.00000   0.00000   0.00000   0.13991
  75       15PY         0.00000   0.00000   0.00000   0.00000   0.10188
  76       15PZ        -0.00230  -0.00093  -0.17440   0.17250   0.00000
  77       16PX         0.00000   0.00000   0.00000   0.00000   0.00425
  78       16PY         0.00000   0.00000   0.00000   0.00000   0.00310
  79       16PZ         0.00014   0.00357  -0.00508  -0.00076   0.00000
  80       17PX         0.00000   0.00000   0.00000   0.00000  -0.00048
  81       17PY         0.00000   0.00000   0.00000   0.00000  -0.00035
  82       17PZ         0.00003  -0.00163   0.00131  -0.00414   0.00000
  83       18D 0        0.00128  -0.00098   0.00316  -0.00133   0.00000
  84       18D+1        0.00000   0.00000   0.00000   0.00000  -0.00151
  85       18D-1        0.00000   0.00000   0.00000   0.00000  -0.00110
  86       18D+2        0.00000   0.00000   0.00000   0.00000   0.00000
  87       18D-2        0.00000   0.00000   0.00000   0.00000   0.00000
  88       19D 0        0.00125  -0.00101   0.00318  -0.00051   0.00000
  89       19D+1        0.00000   0.00000   0.00000   0.00000  -0.00108
  90       19D-1        0.00000   0.00000   0.00000   0.00000  -0.00079
  91       19D+2        0.00000   0.00000   0.00000   0.00000   0.00000
  92       19D-2        0.00000   0.00000   0.00000   0.00000   0.00000
  93       20D 0        0.00117   0.00073   0.00272   0.00057   0.00000
  94       20D+1        0.00000   0.00000   0.00000   0.00000  -0.00069
  95       20D-1        0.00000   0.00000   0.00000   0.00000  -0.00050
  96       20D+2        0.00000   0.00000   0.00000   0.00000   0.00000
  97       20D-2        0.00000   0.00000   0.00000   0.00000   0.00000
  98       21D 0        0.00002  -0.00130  -0.00095   0.00239   0.00000
  99       21D+1        0.00000   0.00000   0.00000   0.00000   0.00014
 100       21D-1        0.00000   0.00000   0.00000   0.00000   0.00010
 101       21D+2        0.00000   0.00000   0.00000   0.00000   0.00000
 102       21D-2        0.00000   0.00000   0.00000   0.00000   0.00000
                          16        17        18        19        20
                           O         O         O         O         O
     Eigenvalues --    -2.52331  -2.52043  -2.52043  -0.43075  -0.41280
   1 1   Co 1S          0.00000   0.00000   0.00000  -0.00325   0.00000
   2        2S          0.00000   0.00000   0.00000  -0.00517   0.00000
   3        3S          0.00000   0.00000   0.00000  -0.00202   0.00000
   4        4S          0.00000   0.00000   0.00000   0.01601   0.00000
   5        5S          0.00000   0.00000   0.00000   0.02943   0.00000
   6        6S          0.00000   0.00000   0.00000  -0.05536   0.00000
   7        7S          0.00000   0.00000   0.00000  -0.04580   0.00000
   8        8S          0.00000   0.00000   0.00000   0.07032   0.00000
   9        9S          0.00000   0.00000   0.00000  -0.00255   0.00000
  10       10S          0.00000   0.00000   0.00000   0.00367   0.00000
  11       11PX         0.12858  -0.18637  -0.11478   0.00000   0.00563
  12       11PY        -0.17657   0.11478  -0.18637   0.00000   0.00424
  13       11PZ         0.00000   0.00000   0.00000   0.01501   0.00000
  14       12PX         0.03949  -0.05720  -0.03523   0.00000   0.00133
  15       12PY        -0.05423   0.03523  -0.05720   0.00000   0.00100
  16       12PZ         0.00000   0.00000   0.00000   0.00384   0.00000
  17       13PX        -0.15685   0.22725   0.13996   0.00000  -0.00657
  18       13PY         0.21540  -0.13996   0.22725   0.00000  -0.00495
  19       13PZ         0.00000   0.00000   0.00000  -0.01875   0.00000
  20       14PX        -0.22424   0.32551   0.20047   0.00000  -0.01451
  21       14PY         0.30796  -0.20047   0.32551   0.00000  -0.01093
  22       14PZ         0.00000   0.00000   0.00000  -0.03666   0.00000
  23       15PX        -0.10188   0.14698   0.09052   0.00000   0.00148
  24       15PY         0.13991  -0.09052   0.14698   0.00000   0.00111
  25       15PZ         0.00000   0.00000   0.00000   0.00361   0.00000
  26       16PX        -0.00310   0.00417   0.00257   0.00000   0.01204
  27       16PY         0.00425  -0.00257   0.00417   0.00000   0.00907
  28       16PZ         0.00000   0.00000   0.00000   0.01061   0.00000
  29       17PX         0.00035  -0.00056  -0.00035   0.00000  -0.00119
  30       17PY        -0.00048   0.00035  -0.00056   0.00000  -0.00090
  31       17PZ         0.00000   0.00000   0.00000   0.00245   0.00000
  32       18D 0        0.00000   0.00000   0.00000   0.31538   0.00000
  33       18D+1       -0.00110   0.00127   0.00078   0.00000   0.25343
  34       18D-1        0.00151  -0.00078   0.00127   0.00000   0.19080
  35       18D+2        0.00000   0.00000   0.00000   0.00000   0.00000
  36       18D-2        0.00000   0.00000   0.00000   0.00000   0.00000
  37       19D 0        0.00000   0.00000   0.00000   0.30153   0.00000
  38       19D+1       -0.00079   0.00091   0.00056   0.00000   0.24141
  39       19D-1        0.00108  -0.00056   0.00091   0.00000   0.18175
  40       19D+2        0.00000   0.00000   0.00000   0.00000   0.00000
  41       19D-2        0.00000   0.00000   0.00000   0.00000   0.00000
  42       20D 0        0.00000   0.00000   0.00000   0.22895   0.00000
  43       20D+1       -0.00050  -0.00052  -0.00032   0.00000   0.18726
  44       20D-1        0.00069   0.00032  -0.00052   0.00000   0.14098
  45       20D+2        0.00000   0.00000   0.00000   0.00000   0.00000
  46       20D-2        0.00000   0.00000   0.00000   0.00000   0.00000
  47       21D 0        0.00000   0.00000   0.00000   0.05899   0.00000
  48       21D+1        0.00010  -0.00008  -0.00005   0.00000   0.04745
  49       21D-1       -0.00014   0.00005  -0.00008   0.00000   0.03572
  50       21D+2        0.00000   0.00000   0.00000   0.00000   0.00000
  51       21D-2        0.00000   0.00000   0.00000   0.00000   0.00000
  52 2   Co 1S          0.00000   0.00000   0.00000  -0.00325   0.00000
  53        2S          0.00000   0.00000   0.00000  -0.00517   0.00000
  54        3S          0.00000   0.00000   0.00000  -0.00202   0.00000
  55        4S          0.00000   0.00000   0.00000   0.01601   0.00000
  56        5S          0.00000   0.00000   0.00000   0.02943   0.00000
  57        6S          0.00000   0.00000   0.00000  -0.05536   0.00000
  58        7S          0.00000   0.00000   0.00000  -0.04580   0.00000
  59        8S          0.00000   0.00000   0.00000   0.07032   0.00000
  60        9S          0.00000   0.00000   0.00000  -0.00255   0.00000
  61       10S          0.00000   0.00000   0.00000   0.00367   0.00000
  62       11PX         0.12858   0.18637   0.11478   0.00000   0.00563
  63       11PY        -0.17657  -0.11478   0.18637   0.00000   0.00424
  64       11PZ         0.00000   0.00000   0.00000  -0.01501   0.00000
  65       12PX         0.03949   0.05720   0.03523   0.00000   0.00133
  66       12PY        -0.05423  -0.03523   0.05720   0.00000   0.00100
  67       12PZ         0.00000   0.00000   0.00000  -0.00384   0.00000
  68       13PX        -0.15685  -0.22725  -0.13996   0.00000  -0.00657
  69       13PY         0.21540   0.13996  -0.22725   0.00000  -0.00495
  70       13PZ         0.00000   0.00000   0.00000   0.01875   0.00000
  71       14PX        -0.22424  -0.32551  -0.20047   0.00000  -0.01451
  72       14PY         0.30796   0.20047  -0.32551   0.00000  -0.01093
  73       14PZ         0.00000   0.00000   0.00000   0.03666   0.00000
  74       15PX        -0.10188  -0.14698  -0.09052   0.00000   0.00148
  75       15PY         0.13991   0.09052  -0.14698   0.00000   0.00111
  76       15PZ         0.00000   0.00000   0.00000  -0.00361   0.00000
  77       16PX        -0.00310  -0.00417  -0.00257   0.00000   0.01204
  78       16PY         0.00425   0.00257  -0.00417   0.00000   0.00907
  79       16PZ         0.00000   0.00000   0.00000  -0.01061   0.00000
  80       17PX         0.00035   0.00056   0.00035   0.00000  -0.00119
  81       17PY        -0.00048  -0.00035   0.00056   0.00000  -0.00090
  82       17PZ         0.00000   0.00000   0.00000  -0.00245   0.00000
  83       18D 0        0.00000   0.00000   0.00000   0.31538   0.00000
  84       18D+1        0.00110   0.00127   0.00078   0.00000  -0.25343
  85       18D-1       -0.00151  -0.00078   0.00127   0.00000  -0.19080
  86       18D+2        0.00000   0.00000   0.00000   0.00000   0.00000
  87       18D-2        0.00000   0.00000   0.00000   0.00000   0.00000
  88       19D 0        0.00000   0.00000   0.00000   0.30153   0.00000
  89       19D+1        0.00079   0.00091   0.00056   0.00000  -0.24141
  90       19D-1       -0.00108  -0.00056   0.00091   0.00000  -0.18175
  91       19D+2        0.00000   0.00000   0.00000   0.00000   0.00000
  92       19D-2        0.00000   0.00000   0.00000   0.00000   0.00000
  93       20D 0        0.00000   0.00000   0.00000   0.22895   0.00000
  94       20D+1        0.00050  -0.00052  -0.00032   0.00000  -0.18726
  95       20D-1       -0.00069   0.00032  -0.00052   0.00000  -0.14098
  96       20D+2        0.00000   0.00000   0.00000   0.00000   0.00000
  97       20D-2        0.00000   0.00000   0.00000   0.00000   0.00000
  98       21D 0        0.00000   0.00000   0.00000   0.05899   0.00000
  99       21D+1       -0.00010  -0.00008  -0.00005   0.00000  -0.04745
 100       21D-1        0.00014   0.00005  -0.00008   0.00000  -0.03572
 101       21D+2        0.00000   0.00000   0.00000   0.00000   0.00000
 102       21D-2        0.00000   0.00000   0.00000   0.00000   0.00000
                          21        22        23        24        25
                           O         O         O         O         O
     Eigenvalues --    -0.41280  -0.39489  -0.38113  -0.35871  -0.34991
   1 1   Co 1S          0.00000   0.00000   0.00000   0.00000   0.00000
   2        2S          0.00000   0.00000   0.00000   0.00000   0.00000
   3        3S          0.00000   0.00000   0.00000   0.00000   0.00000
   4        4S          0.00000   0.00000   0.00000   0.00000   0.00000
   5        5S          0.00000   0.00000   0.00000   0.00000   0.00000
   6        6S          0.00000   0.00000   0.00000   0.00000   0.00000
   7        7S          0.00000   0.00000   0.00000   0.00000   0.00000
   8        8S          0.00000   0.00000   0.00000   0.00000   0.00000
   9        9S          0.00000   0.00000   0.00000   0.00000   0.00000
  10       10S          0.00000   0.00000   0.00000   0.00000   0.00000
  11       11PX        -0.00424   0.00000   0.00000   0.00000  -0.00521
  12       11PY         0.00563   0.00000   0.00000   0.00000   0.00441
  13       11PZ         0.00000   0.00000   0.00000   0.00000   0.00000
  14       12PX        -0.00100   0.00000   0.00000   0.00000  -0.00131
  15       12PY         0.00133   0.00000   0.00000   0.00000   0.00111
  16       12PZ         0.00000   0.00000   0.00000   0.00000   0.00000
  17       13PX         0.00495   0.00000   0.00000   0.00000   0.00660
  18       13PY        -0.00657   0.00000   0.00000   0.00000  -0.00559
  19       13PZ         0.00000   0.00000   0.00000   0.00000   0.00000
  20       14PX         0.01093   0.00000   0.00000   0.00000   0.01411
  21       14PY        -0.01451   0.00000   0.00000   0.00000  -0.01193
  22       14PZ         0.00000   0.00000   0.00000   0.00000   0.00000
  23       15PX        -0.00111   0.00000   0.00000   0.00000  -0.00505
  24       15PY         0.00148   0.00000   0.00000   0.00000   0.00427
  25       15PZ         0.00000   0.00000   0.00000   0.00000   0.00000
  26       16PX        -0.00907   0.00000   0.00000   0.00000  -0.01657
  27       16PY         0.01204   0.00000   0.00000   0.00000   0.01401
  28       16PZ         0.00000   0.00000   0.00000   0.00000   0.00000
  29       17PX         0.00090   0.00000   0.00000   0.00000   0.00449
  30       17PY        -0.00119   0.00000   0.00000   0.00000  -0.00380
  31       17PZ         0.00000   0.00000   0.00000   0.00000   0.00000
  32       18D 0        0.00000   0.00000   0.00000   0.00000   0.00000
  33       18D+1       -0.19080   0.00000   0.00000   0.00000   0.25943
  34       18D-1        0.25343   0.00000   0.00000   0.00000  -0.21947
  35       18D+2        0.00000   0.32754   0.33483   0.00000   0.00000
  36       18D-2        0.00000   0.00000   0.00000   0.32354   0.00000
  37       19D 0        0.00000   0.00000   0.00000   0.00000   0.00000
  38       19D+1       -0.18175   0.00000   0.00000   0.00000   0.24656
  39       19D-1        0.24141   0.00000   0.00000   0.00000  -0.20858
  40       19D+2        0.00000   0.31252   0.31984   0.00000   0.00000
  41       19D-2        0.00000   0.00000   0.00000   0.30812   0.00000
  42       20D 0        0.00000   0.00000   0.00000   0.00000   0.00000
  43       20D+1       -0.14098   0.00000   0.00000   0.00000   0.17917
  44       20D-1        0.18726   0.00000   0.00000   0.00000  -0.15157
  45       20D+2        0.00000   0.23158   0.23175   0.00000   0.00000
  46       20D-2        0.00000   0.00000   0.00000   0.23616   0.00000
  47       21D 0        0.00000   0.00000   0.00000   0.00000   0.00000
  48       21D+1       -0.03572   0.00000   0.00000   0.00000   0.05587
  49       21D-1        0.04745   0.00000   0.00000   0.00000  -0.04726
  50       21D+2        0.00000   0.06052   0.06287   0.00000   0.00000
  51       21D-2        0.00000   0.00000   0.00000   0.06935   0.00000
  52 2   Co 1S          0.00000   0.00000   0.00000   0.00000   0.00000
  53        2S          0.00000   0.00000   0.00000   0.00000   0.00000
  54        3S          0.00000   0.00000   0.00000   0.00000   0.00000
  55        4S          0.00000   0.00000   0.00000   0.00000   0.00000
  56        5S          0.00000   0.00000   0.00000   0.00000   0.00000
  57        6S          0.00000   0.00000   0.00000   0.00000   0.00000
  58        7S          0.00000   0.00000   0.00000   0.00000   0.00000
  59        8S          0.00000   0.00000   0.00000   0.00000   0.00000
  60        9S          0.00000   0.00000   0.00000   0.00000   0.00000
  61       10S          0.00000   0.00000   0.00000   0.00000   0.00000
  62       11PX        -0.00424   0.00000   0.00000   0.00000   0.00521
  63       11PY         0.00563   0.00000   0.00000   0.00000  -0.00441
  64       11PZ         0.00000   0.00000   0.00000   0.00000   0.00000
  65       12PX        -0.00100   0.00000   0.00000   0.00000   0.00131
  66       12PY         0.00133   0.00000   0.00000   0.00000  -0.00111
  67       12PZ         0.00000   0.00000   0.00000   0.00000   0.00000
  68       13PX         0.00495   0.00000   0.00000   0.00000  -0.00660
  69       13PY        -0.00657   0.00000   0.00000   0.00000   0.00559
  70       13PZ         0.00000   0.00000   0.00000   0.00000   0.00000
  71       14PX         0.01093   0.00000   0.00000   0.00000  -0.01411
  72       14PY        -0.01451   0.00000   0.00000   0.00000   0.01193
  73       14PZ         0.00000   0.00000   0.00000   0.00000   0.00000
  74       15PX        -0.00111   0.00000   0.00000   0.00000   0.00505
  75       15PY         0.00148   0.00000   0.00000   0.00000  -0.00427
  76       15PZ         0.00000   0.00000   0.00000   0.00000   0.00000
  77       16PX        -0.00907   0.00000   0.00000   0.00000   0.01657
  78       16PY         0.01204   0.00000   0.00000   0.00000  -0.01401
  79       16PZ         0.00000   0.00000   0.00000   0.00000   0.00000
  80       17PX         0.00090   0.00000   0.00000   0.00000  -0.00449
  81       17PY        -0.00119   0.00000   0.00000   0.00000   0.00380
  82       17PZ         0.00000   0.00000   0.00000   0.00000   0.00000
  83       18D 0        0.00000   0.00000   0.00000   0.00000   0.00000
  84       18D+1        0.19080   0.00000   0.00000   0.00000   0.25943
  85       18D-1       -0.25343   0.00000   0.00000   0.00000  -0.21947
  86       18D+2        0.00000   0.32754  -0.33483   0.00000   0.00000
  87       18D-2        0.00000   0.00000   0.00000   0.32354   0.00000
  88       19D 0        0.00000   0.00000   0.00000   0.00000   0.00000
  89       19D+1        0.18175   0.00000   0.00000   0.00000   0.24656
  90       19D-1       -0.24141   0.00000   0.00000   0.00000  -0.20858
  91       19D+2        0.00000   0.31252  -0.31984   0.00000   0.00000
  92       19D-2        0.00000   0.00000   0.00000   0.30812   0.00000
  93       20D 0        0.00000   0.00000   0.00000   0.00000   0.00000
  94       20D+1        0.14098   0.00000   0.00000   0.00000   0.17917
  95       20D-1       -0.18726   0.00000   0.00000   0.00000  -0.15157
  96       20D+2        0.00000   0.23158  -0.23175   0.00000   0.00000
  97       20D-2        0.00000   0.00000   0.00000   0.23616   0.00000
  98       21D 0        0.00000   0.00000   0.00000   0.00000   0.00000
  99       21D+1        0.03572   0.00000   0.00000   0.00000   0.05587
 100       21D-1       -0.04745   0.00000   0.00000   0.00000  -0.04726
 101       21D+2        0.00000   0.06052  -0.06287   0.00000   0.00000
 102       21D-2        0.00000   0.00000   0.00000   0.06935   0.00000
                          26        27        28        29        30
                           O         O         O         O         O
     Eigenvalues --    -0.34991  -0.34364  -0.34259  -0.26828  -0.16036
   1 1   Co 1S          0.00000   0.00000   0.00226  -0.01194  -0.00896
   2        2S          0.00000   0.00000   0.00359  -0.01885  -0.01410
   3        3S          0.00000   0.00000   0.00142  -0.00788  -0.00605
   4        4S          0.00000   0.00000  -0.01119   0.06052   0.04595
   5        5S          0.00000   0.00000  -0.02064   0.10523   0.07797
   6        6S          0.00000   0.00000   0.04021  -0.19424  -0.14230
   7        7S          0.00000   0.00000   0.03185  -0.22174  -0.18434
   8        8S          0.00000   0.00000  -0.07868   0.49116   0.46397
   9        9S          0.00000   0.00000   0.02632   0.16210   0.32775
  10       10S          0.00000   0.00000   0.00464   0.00476   0.04156
  11       11PX        -0.00441   0.00000   0.00000   0.00000   0.00000
  12       11PY        -0.00521   0.00000   0.00000   0.00000   0.00000
  13       11PZ         0.00000   0.00000  -0.00997   0.01216  -0.02596
  14       12PX        -0.00111   0.00000   0.00000   0.00000   0.00000
  15       12PY        -0.00131   0.00000   0.00000   0.00000   0.00000
  16       12PZ         0.00000   0.00000  -0.00303   0.00359  -0.00697
  17       13PX         0.00559   0.00000   0.00000   0.00000   0.00000
  18       13PY         0.00660   0.00000   0.00000   0.00000   0.00000
  19       13PZ         0.00000   0.00000   0.01463  -0.01732   0.03461
  20       14PX         0.01193   0.00000   0.00000   0.00000   0.00000
  21       14PY         0.01411   0.00000   0.00000   0.00000   0.00000
  22       14PZ         0.00000   0.00000   0.02170  -0.02727   0.06334
  23       15PX        -0.00427   0.00000   0.00000   0.00000   0.00000
  24       15PY        -0.00505   0.00000   0.00000   0.00000   0.00000
  25       15PZ         0.00000   0.00000  -0.00161  -0.00324  -0.00027
  26       16PX        -0.01401   0.00000   0.00000   0.00000   0.00000
  27       16PY        -0.01657   0.00000   0.00000   0.00000   0.00000
  28       16PZ         0.00000   0.00000  -0.03635   0.01954  -0.18078
  29       17PX         0.00380   0.00000   0.00000   0.00000   0.00000
  30       17PY         0.00449   0.00000   0.00000   0.00000   0.00000
  31       17PZ         0.00000   0.00000   0.01514  -0.00513  -0.13269
  32       18D 0        0.00000   0.00000   0.33682  -0.05078   0.02739
  33       18D+1        0.21947   0.00000   0.00000   0.00000   0.00000
  34       18D-1        0.25943   0.00000   0.00000   0.00000   0.00000
  35       18D+2        0.00000   0.00000   0.00000   0.00000   0.00000
  36       18D-2        0.00000   0.33174   0.00000   0.00000   0.00000
  37       19D 0        0.00000   0.00000   0.31884  -0.04756   0.02488
  38       19D+1        0.20858   0.00000   0.00000   0.00000   0.00000
  39       19D-1        0.24656   0.00000   0.00000   0.00000   0.00000
  40       19D+2        0.00000   0.00000   0.00000   0.00000   0.00000
  41       19D-2        0.00000   0.31633   0.00000   0.00000   0.00000
  42       20D 0        0.00000   0.00000   0.23933  -0.03527   0.01978
  43       20D+1        0.15157   0.00000   0.00000   0.00000   0.00000
  44       20D-1        0.17917   0.00000   0.00000   0.00000   0.00000
  45       20D+2        0.00000   0.00000   0.00000   0.00000   0.00000
  46       20D-2        0.00000   0.23683   0.00000   0.00000   0.00000
  47       21D 0        0.00000   0.00000   0.06336  -0.00579   0.01182
  48       21D+1        0.04726   0.00000   0.00000   0.00000   0.00000
  49       21D-1        0.05587   0.00000   0.00000   0.00000   0.00000
  50       21D+2        0.00000   0.00000   0.00000   0.00000   0.00000
  51       21D-2        0.00000   0.07207   0.00000   0.00000   0.00000
  52 2   Co 1S          0.00000   0.00000  -0.00226  -0.01194   0.00896
  53        2S          0.00000   0.00000  -0.00359  -0.01885   0.01410
  54        3S          0.00000   0.00000  -0.00142  -0.00788   0.00605
  55        4S          0.00000   0.00000   0.01119   0.06052  -0.04595
  56        5S          0.00000   0.00000   0.02064   0.10523  -0.07797
  57        6S          0.00000   0.00000  -0.04021  -0.19424   0.14230
  58        7S          0.00000   0.00000  -0.03185  -0.22174   0.18434
  59        8S          0.00000   0.00000   0.07868   0.49116  -0.46397
  60        9S          0.00000   0.00000  -0.02632   0.16210  -0.32775
  61       10S          0.00000   0.00000  -0.00464   0.00476  -0.04156
  62       11PX         0.00441   0.00000   0.00000   0.00000   0.00000
  63       11PY         0.00521   0.00000   0.00000   0.00000   0.00000
  64       11PZ         0.00000   0.00000  -0.00997  -0.01216  -0.02596
  65       12PX         0.00111   0.00000   0.00000   0.00000   0.00000
  66       12PY         0.00131   0.00000   0.00000   0.00000   0.00000
  67       12PZ         0.00000   0.00000  -0.00303  -0.00359  -0.00697
  68       13PX        -0.00559   0.00000   0.00000   0.00000   0.00000
  69       13PY        -0.00660   0.00000   0.00000   0.00000   0.00000
  70       13PZ         0.00000   0.00000   0.01463   0.01732   0.03461
  71       14PX        -0.01193   0.00000   0.00000   0.00000   0.00000
  72       14PY        -0.01411   0.00000   0.00000   0.00000   0.00000
  73       14PZ         0.00000   0.00000   0.02170   0.02727   0.06334
  74       15PX         0.00427   0.00000   0.00000   0.00000   0.00000
  75       15PY         0.00505   0.00000   0.00000   0.00000   0.00000
  76       15PZ         0.00000   0.00000  -0.00161   0.00324  -0.00027
  77       16PX         0.01401   0.00000   0.00000   0.00000   0.00000
  78       16PY         0.01657   0.00000   0.00000   0.00000   0.00000
  79       16PZ         0.00000   0.00000  -0.03635  -0.01954  -0.18078
  80       17PX        -0.00380   0.00000   0.00000   0.00000   0.00000
  81       17PY        -0.00449   0.00000   0.00000   0.00000   0.00000
  82       17PZ         0.00000   0.00000   0.01514   0.00513  -0.13269
  83       18D 0        0.00000   0.00000  -0.33682  -0.05078  -0.02739
  84       18D+1        0.21947   0.00000   0.00000   0.00000   0.00000
  85       18D-1        0.25943   0.00000   0.00000   0.00000   0.00000
  86       18D+2        0.00000   0.00000   0.00000   0.00000   0.00000
  87       18D-2        0.00000  -0.33174   0.00000   0.00000   0.00000
  88       19D 0        0.00000   0.00000  -0.31884  -0.04756  -0.02488
  89       19D+1        0.20858   0.00000   0.00000   0.00000   0.00000
  90       19D-1        0.24656   0.00000   0.00000   0.00000   0.00000
  91       19D+2        0.00000   0.00000   0.00000   0.00000   0.00000
  92       19D-2        0.00000  -0.31633   0.00000   0.00000   0.00000
  93       20D 0        0.00000   0.00000  -0.23933  -0.03527  -0.01978
  94       20D+1        0.15157   0.00000   0.00000   0.00000   0.00000
  95       20D-1        0.17917   0.00000   0.00000   0.00000   0.00000
  96       20D+2        0.00000   0.00000   0.00000   0.00000   0.00000
  97       20D-2        0.00000  -0.23683   0.00000   0.00000   0.00000
  98       21D 0        0.00000   0.00000  -0.06336  -0.00579  -0.01182
  99       21D+1        0.04726   0.00000   0.00000   0.00000   0.00000
 100       21D-1        0.05587   0.00000   0.00000   0.00000   0.00000
 101       21D+2        0.00000   0.00000   0.00000   0.00000   0.00000
 102       21D-2        0.00000  -0.07207   0.00000   0.00000   0.00000
                          31        32        33        34        35
                           V         V         V         V         V
     Eigenvalues --    -0.06012  -0.06012  -0.02923   0.01393   0.01474
   1 1   Co 1S          0.00000   0.00000  -0.00267   0.00197   0.00292
   2        2S          0.00000   0.00000  -0.00425   0.00312   0.00461
   3        3S          0.00000   0.00000  -0.00168   0.00128   0.00193
   4        4S          0.00000   0.00000   0.01329  -0.00994  -0.01484
   5        5S          0.00000   0.00000   0.02452  -0.01764  -0.02592
   6        6S          0.00000   0.00000  -0.04742   0.03312   0.04835
   7        7S          0.00000   0.00000  -0.04497   0.03944   0.06006
   8        8S          0.00000   0.00000   0.04270  -0.08977  -0.13676
   9        9S          0.00000   0.00000  -0.14851  -0.73288  -0.09788
  10       10S          0.00000   0.00000  -0.23118   0.82174   3.12286
  11       11PX         0.03990  -0.00020   0.00000   0.00000   0.00000
  12       11PY         0.00020   0.03990   0.00000   0.00000   0.00000
  13       11PZ         0.00000   0.00000   0.04268   0.02049   0.00706
  14       12PX         0.01055  -0.00005   0.00000   0.00000   0.00000
  15       12PY         0.00005   0.01055   0.00000   0.00000   0.00000
  16       12PZ         0.00000   0.00000   0.01163   0.00520   0.00170
  17       13PX        -0.05285   0.00027   0.00000   0.00000   0.00000
  18       13PY        -0.00027  -0.05285   0.00000   0.00000   0.00000
  19       13PZ         0.00000   0.00000  -0.05807  -0.02653  -0.00881
  20       14PX        -0.09928   0.00051   0.00000   0.00000   0.00000
  21       14PY        -0.00051  -0.09928   0.00000   0.00000   0.00000
  22       14PZ         0.00000   0.00000  -0.10364  -0.05326  -0.01922
  23       15PX         0.00146  -0.00001   0.00000   0.00000   0.00000
  24       15PY         0.00001   0.00146   0.00000   0.00000   0.00000
  25       15PZ         0.00000   0.00000  -0.00428   0.00469   0.00430
  26       16PX         0.27771  -0.00142   0.00000   0.00000   0.00000
  27       16PY         0.00142   0.27771   0.00000   0.00000   0.00000
  28       16PZ         0.00000   0.00000   0.26659   0.13257   0.04930
  29       17PX         0.34143  -0.00174   0.00000   0.00000   0.00000
  30       17PY         0.00174   0.34143   0.00000   0.00000   0.00000
  31       17PZ         0.00000   0.00000   0.49367   0.45920   0.33099
  32       18D 0        0.00000   0.00000   0.00019   0.01782  -0.01156
  33       18D+1       -0.02953   0.00015   0.00000   0.00000   0.00000
  34       18D-1       -0.00015  -0.02953   0.00000   0.00000   0.00000
  35       18D+2        0.00000   0.00000   0.00000   0.00000   0.00000
  36       18D-2        0.00000   0.00000   0.00000   0.00000   0.00000
  37       19D 0        0.00000   0.00000   0.00146   0.01725  -0.00981
  38       19D+1       -0.02788   0.00014   0.00000   0.00000   0.00000
  39       19D-1       -0.00014  -0.02788   0.00000   0.00000   0.00000
  40       19D+2        0.00000   0.00000   0.00000   0.00000   0.00000
  41       19D-2        0.00000   0.00000   0.00000   0.00000   0.00000
  42       20D 0        0.00000   0.00000  -0.00501   0.00777  -0.00999
  43       20D+1       -0.01544   0.00008   0.00000   0.00000   0.00000
  44       20D-1       -0.00008  -0.01544   0.00000   0.00000   0.00000
  45       20D+2        0.00000   0.00000   0.00000   0.00000   0.00000
  46       20D-2        0.00000   0.00000   0.00000   0.00000   0.00000
  47       21D 0        0.00000   0.00000  -0.01804  -0.02993   0.02104
  48       21D+1       -0.01623   0.00008   0.00000   0.00000   0.00000
  49       21D-1       -0.00008  -0.01623   0.00000   0.00000   0.00000
  50       21D+2        0.00000   0.00000   0.00000   0.00000   0.00000
  51       21D-2        0.00000   0.00000   0.00000   0.00000   0.00000
  52 2   Co 1S          0.00000   0.00000  -0.00267   0.00197  -0.00292
  53        2S          0.00000   0.00000  -0.00425   0.00312  -0.00461
  54        3S          0.00000   0.00000  -0.00168   0.00128  -0.00193
  55        4S          0.00000   0.00000   0.01329  -0.00994   0.01484
  56        5S          0.00000   0.00000   0.02452  -0.01764   0.02592
  57        6S          0.00000   0.00000  -0.04742   0.03312  -0.04835
  58        7S          0.00000   0.00000  -0.04497   0.03944  -0.06006
  59        8S          0.00000   0.00000   0.04270  -0.08977   0.13676
  60        9S          0.00000   0.00000  -0.14851  -0.73288   0.09788
  61       10S          0.00000   0.00000  -0.23118   0.82174  -3.12286
  62       11PX         0.03990  -0.00020   0.00000   0.00000   0.00000
  63       11PY         0.00020   0.03990   0.00000   0.00000   0.00000
  64       11PZ         0.00000   0.00000  -0.04268  -0.02049   0.00706
  65       12PX         0.01055  -0.00005   0.00000   0.00000   0.00000
  66       12PY         0.00005   0.01055   0.00000   0.00000   0.00000
  67       12PZ         0.00000   0.00000  -0.01163  -0.00520   0.00170
  68       13PX        -0.05285   0.00027   0.00000   0.00000   0.00000
  69       13PY        -0.00027  -0.05285   0.00000   0.00000   0.00000
  70       13PZ         0.00000   0.00000   0.05807   0.02653  -0.00881
  71       14PX        -0.09928   0.00051   0.00000   0.00000   0.00000
  72       14PY        -0.00051  -0.09928   0.00000   0.00000   0.00000
  73       14PZ         0.00000   0.00000   0.10364   0.05326  -0.01922
  74       15PX         0.00146  -0.00001   0.00000   0.00000   0.00000
  75       15PY         0.00001   0.00146   0.00000   0.00000   0.00000
  76       15PZ         0.00000   0.00000   0.00428  -0.00469   0.00430
  77       16PX         0.27771  -0.00142   0.00000   0.00000   0.00000
  78       16PY         0.00142   0.27771   0.00000   0.00000   0.00000
  79       16PZ         0.00000   0.00000  -0.26659  -0.13257   0.04930
  80       17PX         0.34143  -0.00174   0.00000   0.00000   0.00000
  81       17PY         0.00174   0.34143   0.00000   0.00000   0.00000
  82       17PZ         0.00000   0.00000  -0.49367  -0.45920   0.33099
  83       18D 0        0.00000   0.00000   0.00019   0.01782   0.01156
  84       18D+1        0.02953  -0.00015   0.00000   0.00000   0.00000
  85       18D-1        0.00015   0.02953   0.00000   0.00000   0.00000
  86       18D+2        0.00000   0.00000   0.00000   0.00000   0.00000
  87       18D-2        0.00000   0.00000   0.00000   0.00000   0.00000
  88       19D 0        0.00000   0.00000   0.00146   0.01725   0.00981
  89       19D+1        0.02788  -0.00014   0.00000   0.00000   0.00000
  90       19D-1        0.00014   0.02788   0.00000   0.00000   0.00000
  91       19D+2        0.00000   0.00000   0.00000   0.00000   0.00000
  92       19D-2        0.00000   0.00000   0.00000   0.00000   0.00000
  93       20D 0        0.00000   0.00000  -0.00501   0.00777   0.00999
  94       20D+1        0.01544  -0.00008   0.00000   0.00000   0.00000
  95       20D-1        0.00008   0.01544   0.00000   0.00000   0.00000
  96       20D+2        0.00000   0.00000   0.00000   0.00000   0.00000
  97       20D-2        0.00000   0.00000   0.00000   0.00000   0.00000
  98       21D 0        0.00000   0.00000  -0.01804  -0.02993  -0.02104
  99       21D+1        0.01623  -0.00008   0.00000   0.00000   0.00000
 100       21D-1        0.00008   0.01623   0.00000   0.00000   0.00000
 101       21D+2        0.00000   0.00000   0.00000   0.00000   0.00000
 102       21D-2        0.00000   0.00000   0.00000   0.00000   0.00000
                          36        37        38        39        40
                           V         V         V         V         V
     Eigenvalues --     0.02594   0.02594   0.10340   0.13632   0.15219
   1 1   Co 1S          0.00000   0.00000  -0.00375  -0.00621   0.00000
   2        2S          0.00000   0.00000  -0.00586  -0.00958   0.00000
   3        3S          0.00000   0.00000  -0.00268  -0.00479   0.00000
   4        4S          0.00000   0.00000   0.01981   0.03398   0.00000
   5        5S          0.00000   0.00000   0.03164   0.04952   0.00000
   6        6S          0.00000   0.00000  -0.05605  -0.08393   0.00000
   7        7S          0.00000   0.00000  -0.09690  -0.17928   0.00000
   8        8S          0.00000   0.00000   0.32357   1.33498   0.00000
   9        9S          0.00000   0.00000  11.36379  -1.13799   0.00000
  10       10S          0.00000   0.00000   2.41294   0.36473   0.00000
  11       11PX         0.00120   0.02620   0.00000   0.00000   0.04652
  12       11PY         0.02620  -0.00120   0.00000   0.00000  -0.00028
  13       11PZ         0.00000   0.00000  -0.00314   0.03252   0.00000
  14       12PX         0.00030   0.00666   0.00000   0.00000   0.01544
  15       12PY         0.00666  -0.00030   0.00000   0.00000  -0.00009
  16       12PZ         0.00000   0.00000  -0.00005   0.00971   0.00000
  17       13PX        -0.00155  -0.03395   0.00000   0.00000  -0.07463
  18       13PY        -0.03395   0.00155   0.00000   0.00000   0.00045
  19       13PZ         0.00000   0.00000   0.00129  -0.04805   0.00000
  20       14PX        -0.00310  -0.06781   0.00000   0.00000  -0.08910
  21       14PY        -0.06781   0.00310   0.00000   0.00000   0.00053
  22       14PZ         0.00000   0.00000   0.01549  -0.07310   0.00000
  23       15PX         0.00022   0.00474   0.00000   0.00000  -0.06022
  24       15PY         0.00474  -0.00022   0.00000   0.00000   0.00036
  25       15PZ         0.00000   0.00000  -0.02074  -0.01491   0.00000
  26       16PX         0.00856   0.18736   0.00000   0.00000   0.81217
  27       16PY         0.18736  -0.00856   0.00000   0.00000  -0.00485
  28       16PZ         0.00000   0.00000   0.33731   0.42545   0.00000
  29       17PX         0.05287   1.15698   0.00000   0.00000  -0.67138
  30       17PY         1.15698  -0.05287   0.00000   0.00000   0.00401
  31       17PZ         0.00000   0.00000   5.68307  -0.98142   0.00000
  32       18D 0        0.00000   0.00000   0.04849  -0.04310   0.00000
  33       18D+1        0.00254   0.05565   0.00000   0.00000  -0.04694
  34       18D-1        0.05565  -0.00254   0.00000   0.00000   0.00028
  35       18D+2        0.00000   0.00000   0.00000   0.00000   0.00000
  36       18D-2        0.00000   0.00000   0.00000   0.00000   0.00000
  37       19D 0        0.00000   0.00000   0.04737  -0.04268   0.00000
  38       19D+1        0.00245   0.05369   0.00000   0.00000  -0.04056
  39       19D-1        0.05369  -0.00245   0.00000   0.00000   0.00024
  40       19D+2        0.00000   0.00000   0.00000   0.00000   0.00000
  41       19D-2        0.00000   0.00000   0.00000   0.00000   0.00000
  42       20D 0        0.00000   0.00000   0.01600  -0.00666   0.00000
  43       20D+1        0.00106   0.02318   0.00000   0.00000  -0.03299
  44       20D-1        0.02318  -0.00106   0.00000   0.00000   0.00020
  45       20D+2        0.00000   0.00000   0.00000   0.00000   0.00000
  46       20D-2        0.00000   0.00000   0.00000   0.00000   0.00000
  47       21D 0        0.00000   0.00000   0.23616  -0.20855   0.00000
  48       21D+1       -0.00039  -0.00863   0.00000   0.00000   0.06168
  49       21D-1       -0.00863   0.00039   0.00000   0.00000  -0.00037
  50       21D+2        0.00000   0.00000   0.00000   0.00000   0.00000
  51       21D-2        0.00000   0.00000   0.00000   0.00000   0.00000
  52 2   Co 1S          0.00000   0.00000   0.00375  -0.00621   0.00000
  53        2S          0.00000   0.00000   0.00586  -0.00958   0.00000
  54        3S          0.00000   0.00000   0.00268  -0.00479   0.00000
  55        4S          0.00000   0.00000  -0.01981   0.03398   0.00000
  56        5S          0.00000   0.00000  -0.03164   0.04952   0.00000
  57        6S          0.00000   0.00000   0.05605  -0.08393   0.00000
  58        7S          0.00000   0.00000   0.09690  -0.17928   0.00000
  59        8S          0.00000   0.00000  -0.32357   1.33498   0.00000
  60        9S          0.00000   0.00000 -11.36379  -1.13799   0.00000
  61       10S          0.00000   0.00000  -2.41294   0.36473   0.00000
  62       11PX        -0.00120  -0.02620   0.00000   0.00000   0.04652
  63       11PY        -0.02620   0.00120   0.00000   0.00000  -0.00028
  64       11PZ         0.00000   0.00000  -0.00314  -0.03252   0.00000
  65       12PX        -0.00030  -0.00666   0.00000   0.00000   0.01544
  66       12PY        -0.00666   0.00030   0.00000   0.00000  -0.00009
  67       12PZ         0.00000   0.00000  -0.00005  -0.00971   0.00000
  68       13PX         0.00155   0.03395   0.00000   0.00000  -0.07463
  69       13PY         0.03395  -0.00155   0.00000   0.00000   0.00045
  70       13PZ         0.00000   0.00000   0.00129   0.04805   0.00000
  71       14PX         0.00310   0.06781   0.00000   0.00000  -0.08910
  72       14PY         0.06781  -0.00310   0.00000   0.00000   0.00053
  73       14PZ         0.00000   0.00000   0.01549   0.07310   0.00000
  74       15PX        -0.00022  -0.00474   0.00000   0.00000  -0.06022
  75       15PY        -0.00474   0.00022   0.00000   0.00000   0.00036
  76       15PZ         0.00000   0.00000  -0.02074   0.01491   0.00000
  77       16PX        -0.00856  -0.18736   0.00000   0.00000   0.81217
  78       16PY        -0.18736   0.00856   0.00000   0.00000  -0.00485
  79       16PZ         0.00000   0.00000   0.33731  -0.42545   0.00000
  80       17PX        -0.05287  -1.15698   0.00000   0.00000  -0.67138
  81       17PY        -1.15698   0.05287   0.00000   0.00000   0.00401
  82       17PZ         0.00000   0.00000   5.68307   0.98142   0.00000
  83       18D 0        0.00000   0.00000  -0.04849  -0.04310   0.00000
  84       18D+1        0.00254   0.05565   0.00000   0.00000   0.04694
  85       18D-1        0.05565  -0.00254   0.00000   0.00000  -0.00028
  86       18D+2        0.00000   0.00000   0.00000   0.00000   0.00000
  87       18D-2        0.00000   0.00000   0.00000   0.00000   0.00000
  88       19D 0        0.00000   0.00000  -0.04737  -0.04268   0.00000
  89       19D+1        0.00245   0.05369   0.00000   0.00000   0.04056
  90       19D-1        0.05369  -0.00245   0.00000   0.00000  -0.00024
  91       19D+2        0.00000   0.00000   0.00000   0.00000   0.00000
  92       19D-2        0.00000   0.00000   0.00000   0.00000   0.00000
  93       20D 0        0.00000   0.00000  -0.01600  -0.00666   0.00000
  94       20D+1        0.00106   0.02318   0.00000   0.00000   0.03299
  95       20D-1        0.02318  -0.00106   0.00000   0.00000  -0.00020
  96       20D+2        0.00000   0.00000   0.00000   0.00000   0.00000
  97       20D-2        0.00000   0.00000   0.00000   0.00000   0.00000
  98       21D 0        0.00000   0.00000  -0.23616  -0.20855   0.00000
  99       21D+1       -0.00039  -0.00863   0.00000   0.00000  -0.06168
 100       21D-1       -0.00863   0.00039   0.00000   0.00000   0.00037
 101       21D+2        0.00000   0.00000   0.00000   0.00000   0.00000
 102       21D-2        0.00000   0.00000   0.00000   0.00000   0.00000
                          41        42        43        44        45
                           V         V         V         V         V
     Eigenvalues --     0.15219   0.18835   0.20152   0.20823   0.21232
   1 1   Co 1S          0.00000   0.00567   0.00753   0.00000   0.00000
   2        2S          0.00000   0.00869   0.01164   0.00000   0.00000
   3        3S          0.00000   0.00453   0.00572   0.00000   0.00000
   4        4S          0.00000  -0.03162  -0.04097   0.00000   0.00000
   5        5S          0.00000  -0.04369  -0.06069   0.00000   0.00000
   6        6S          0.00000   0.07048   0.10406   0.00000   0.00000
   7        7S          0.00000   0.18442   0.21532   0.00000   0.00000
   8        8S          0.00000  -1.04293  -1.23807   0.00000   0.00000
   9        9S          0.00000   1.53105   8.86394   0.00000   0.00000
  10       10S          0.00000  -0.56819  -1.10411   0.00000   0.00000
  11       11PX         0.00028   0.00000   0.00000   0.00000   0.00000
  12       11PY         0.04652   0.00000   0.00000   0.00000   0.00000
  13       11PZ         0.00000   0.04095   0.02081   0.00000   0.00000
  14       12PX         0.00009   0.00000   0.00000   0.00000   0.00000
  15       12PY         0.01544   0.00000   0.00000   0.00000   0.00000
  16       12PZ         0.00000   0.01350   0.00825   0.00000   0.00000
  17       13PX        -0.00045   0.00000   0.00000   0.00000   0.00000
  18       13PY        -0.07463   0.00000   0.00000   0.00000   0.00000
  19       13PZ         0.00000  -0.06559  -0.03859   0.00000   0.00000
  20       14PX        -0.00053   0.00000   0.00000   0.00000   0.00000
  21       14PY        -0.08910   0.00000   0.00000   0.00000   0.00000
  22       14PZ         0.00000  -0.07893  -0.02716   0.00000   0.00000
  23       15PX        -0.00036   0.00000   0.00000   0.00000   0.00000
  24       15PY        -0.06022   0.00000   0.00000   0.00000   0.00000
  25       15PZ         0.00000  -0.05467  -0.06053   0.00000   0.00000
  26       16PX         0.00485   0.00000   0.00000   0.00000   0.00000
  27       16PY         0.81217   0.00000   0.00000   0.00000   0.00000
  28       16PZ         0.00000   0.72098   0.95930   0.00000   0.00000
  29       17PX        -0.00401   0.00000   0.00000   0.00000   0.00000
  30       17PY        -0.67138   0.00000   0.00000   0.00000   0.00000
  31       17PZ         0.00000  -0.98622   2.58893   0.00000   0.00000
  32       18D 0        0.00000   0.01921   0.01400   0.00000   0.00000
  33       18D+1       -0.00028   0.00000   0.00000   0.00000   0.00000
  34       18D-1       -0.04694   0.00000   0.00000   0.00000   0.00000
  35       18D+2        0.00000   0.00000   0.00000  -0.11621   0.00000
  36       18D-2        0.00000   0.00000   0.00000   0.00000  -0.12077
  37       19D 0        0.00000   0.01471   0.01011   0.00000   0.00000
  38       19D+1       -0.00024   0.00000   0.00000   0.00000   0.00000
  39       19D-1       -0.04056   0.00000   0.00000   0.00000   0.00000
  40       19D+2        0.00000   0.00000   0.00000  -0.09344   0.00000
  41       19D-2        0.00000   0.00000   0.00000   0.00000  -0.09740
  42       20D 0        0.00000   0.01668   0.02122   0.00000   0.00000
  43       20D+1       -0.00020   0.00000   0.00000   0.00000   0.00000
  44       20D-1       -0.03299   0.00000   0.00000   0.00000   0.00000
  45       20D+2        0.00000   0.00000   0.00000  -0.10554   0.00000
  46       20D-2        0.00000   0.00000   0.00000   0.00000  -0.11451
  47       21D 0        0.00000  -0.18261   0.15245   0.00000   0.00000
  48       21D+1        0.00037   0.00000   0.00000   0.00000   0.00000
  49       21D-1        0.06168   0.00000   0.00000   0.00000   0.00000
  50       21D+2        0.00000   0.00000   0.00000   0.61690   0.00000
  51       21D-2        0.00000   0.00000   0.00000   0.00000   0.61750
  52 2   Co 1S          0.00000   0.00567  -0.00753   0.00000   0.00000
  53        2S          0.00000   0.00869  -0.01164   0.00000   0.00000
  54        3S          0.00000   0.00453  -0.00572   0.00000   0.00000
  55        4S          0.00000  -0.03162   0.04097   0.00000   0.00000
  56        5S          0.00000  -0.04369   0.06069   0.00000   0.00000
  57        6S          0.00000   0.07048  -0.10406   0.00000   0.00000
  58        7S          0.00000   0.18442  -0.21532   0.00000   0.00000
  59        8S          0.00000  -1.04293   1.23807   0.00000   0.00000
  60        9S          0.00000   1.53105  -8.86394   0.00000   0.00000
  61       10S          0.00000  -0.56819   1.10411   0.00000   0.00000
  62       11PX         0.00028   0.00000   0.00000   0.00000   0.00000
  63       11PY         0.04652   0.00000   0.00000   0.00000   0.00000
  64       11PZ         0.00000  -0.04095   0.02081   0.00000   0.00000
  65       12PX         0.00009   0.00000   0.00000   0.00000   0.00000
  66       12PY         0.01544   0.00000   0.00000   0.00000   0.00000
  67       12PZ         0.00000  -0.01350   0.00825   0.00000   0.00000
  68       13PX        -0.00045   0.00000   0.00000   0.00000   0.00000
  69       13PY        -0.07463   0.00000   0.00000   0.00000   0.00000
  70       13PZ         0.00000   0.06559  -0.03859   0.00000   0.00000
  71       14PX        -0.00053   0.00000   0.00000   0.00000   0.00000
  72       14PY        -0.08910   0.00000   0.00000   0.00000   0.00000
  73       14PZ         0.00000   0.07893  -0.02716   0.00000   0.00000
  74       15PX        -0.00036   0.00000   0.00000   0.00000   0.00000
  75       15PY        -0.06022   0.00000   0.00000   0.00000   0.00000
  76       15PZ         0.00000   0.05467  -0.06053   0.00000   0.00000
  77       16PX         0.00485   0.00000   0.00000   0.00000   0.00000
  78       16PY         0.81217   0.00000   0.00000   0.00000   0.00000
  79       16PZ         0.00000  -0.72098   0.95930   0.00000   0.00000
  80       17PX        -0.00401   0.00000   0.00000   0.00000   0.00000
  81       17PY        -0.67138   0.00000   0.00000   0.00000   0.00000
  82       17PZ         0.00000   0.98622   2.58893   0.00000   0.00000
  83       18D 0        0.00000   0.01921  -0.01400   0.00000   0.00000
  84       18D+1        0.00028   0.00000   0.00000   0.00000   0.00000
  85       18D-1        0.04694   0.00000   0.00000   0.00000   0.00000
  86       18D+2        0.00000   0.00000   0.00000  -0.11621   0.00000
  87       18D-2        0.00000   0.00000   0.00000   0.00000  -0.12077
  88       19D 0        0.00000   0.01471  -0.01011   0.00000   0.00000
[...]
                                            0.0000  0.0000  0.0000  0.0000  0.0000
                                            0.0000  0.0000  0.0000  0.0000  0.0000
                                            0.0000  0.0000  0.0000  0.0000 -0.9856
                                           -0.0701 -0.0018  0.0009  0.0000  0.0000
                                            0.0000  0.0000  0.0000  0.0000  0.0000
                                            0.0000
   102. (0.00131) BD*( 4)Co   1 -Co   2  
                ( 50.00%)   0.7071*Co   1 s(  0.32%)p 1.72(  0.55%)d99.99( 99.13%)
                                            0.0000  0.0000  0.0000  0.0148 -0.0543
                                           -0.0044 -0.0014 -0.0003  0.0000  0.0000
                                            0.0000  0.0000  0.0000  0.0000  0.0000
                                            0.0000  0.0000  0.0000  0.0000  0.0000
                                            0.0000  0.0000  0.0000  0.0000  0.0000
                                            0.0000 -0.0636 -0.0354 -0.0132 -0.0013
                                            0.0000  0.0000  0.0000  0.0000  0.0000
                                            0.0000  0.0000  0.0000  0.0000  0.0000
                                            0.0000  0.0000  0.0000  0.0000  0.0000
                                            0.0000  0.0000 -0.9945 -0.0471 -0.0119
                                            0.0007
                ( 50.00%)  -0.7071*Co   2 s(  0.32%)p 1.72(  0.55%)d99.99( 99.13%)
                                            0.0000  0.0000  0.0000  0.0148 -0.0543
                                           -0.0044 -0.0014 -0.0003  0.0000  0.0000
                                            0.0000  0.0000  0.0000  0.0000  0.0000
                                            0.0000  0.0000  0.0000  0.0000  0.0000
                                            0.0000  0.0000  0.0000  0.0000  0.0000
                                            0.0000  0.0636  0.0354  0.0132  0.0013
                                            0.0000  0.0000  0.0000  0.0000  0.0000
                                            0.0000  0.0000  0.0000  0.0000  0.0000
                                            0.0000  0.0000  0.0000  0.0000  0.0000
                                            0.0000  0.0000 -0.9945 -0.0471 -0.0119
                                            0.0007


 NHO Directionality and "Bond Bending" (deviations from line of nuclear centers)

         [Thresholds for printing:  angular deviation  >  1.0 degree]
                                    hybrid p-character > 25.0%
                                    orbital occupancy  >  0.10e

                                Line of Centers        Hybrid 1              Hybrid 2
                                ---------------  -------------------   ------------------
                NBO               Theta   Phi    Theta   Phi    Dev    Theta   Phi    Dev
 ========================================================================================
    None exceeding thresholds

 The molecular units found in the alpha and beta manifolds are inequivalent.
 For labelling purposes, the molecular units of the beta system will be used.


 Second Order Perturbation Theory Analysis of Fock Matrix in NBO Basis

     Threshold for printing:   0.25 kcal/mol
                                                                              E(2)  E(j)-E(i) F(i,j)
         Donor NBO (i)                     Acceptor NBO (j)                 kcal/mol   a.u.    a.u. 
 ===================================================================================================

 within unit  1
   6. CR (   2)Co   1                / 24. LP*(   2)Co   1                    0.27   31.72    0.117
   6. CR (   2)Co   1                / 29. LP*(   2)Co   2                    0.32   31.72    0.127
   6. CR (   2)Co   1                /102. BD*(   4)Co   1 -Co   2            0.26   31.53    0.114
   7. CR (   3)Co   1                / 24. LP*(   2)Co   1                    1.30    5.19    0.104
   7. CR (   3)Co   1                / 29. LP*(   2)Co   2                    1.36    5.19    0.106
   7. CR (   3)Co   1                /102. BD*(   4)Co   1 -Co   2            1.30    5.00    0.102
  13. CR (   9)Co   1                / 99. BD*(   1)Co   1 -Co   2            0.99    2.46    0.062
  13. CR (   9)Co   1                /102. BD*(   4)Co   1 -Co   2            0.35    2.33    0.036
  15. CR (   2)Co   2                / 24. LP*(   2)Co   1                    0.32   31.72    0.127
  15. CR (   2)Co   2                / 29. LP*(   2)Co   2                    0.27   31.72    0.117
  15. CR (   2)Co   2                /102. BD*(   4)Co   1 -Co   2            0.26   31.53    0.114
  16. CR (   3)Co   2                / 24. LP*(   2)Co   1                    1.36    5.19    0.106
  16. CR (   3)Co   2                / 29. LP*(   2)Co   2                    1.30    5.19    0.104
  16. CR (   3)Co   2                /102. BD*(   4)Co   1 -Co   2            1.30    5.00    0.102
  22. CR (   9)Co   2                / 99. BD*(   1)Co   1 -Co   2            0.99    2.46    0.062
  22. CR (   9)Co   2                /102. BD*(   4)Co   1 -Co   2            0.35    2.33    0.036


 Natural Bond Orbitals (Summary):

                                                            Principal Delocalizations
           NBO                        Occupancy    Energy   (geminal,vicinal,remote)
 ====================================================================================
 Molecular unit  1  (Co2)
     1. BD (   1)Co   1 -Co   2          1.00000    -0.33889   
     2. BD (   2)Co   1 -Co   2          1.00000    -0.25689   
     3. BD (   3)Co   1 -Co   2          1.00000    -0.25689   
     4. BD (   4)Co   1 -Co   2          1.00000    -0.27682   
     5. CR (   1)Co   1                  1.00000  -277.26556   
     6. CR (   2)Co   1                  1.00000   -31.65414  29(v),24(g),102(g)
     7. CR (   3)Co   1                  0.99875    -5.12611  29(v),24(g),102(g)
     8. CR (   4)Co   1                  1.00000   -28.43093   
     9. CR (   5)Co   1                  0.99988    -2.44661   
    10. CR (   6)Co   1                  1.00000   -28.43093   
    11. CR (   7)Co   1                  0.99988    -2.44661   
    12. CR (   8)Co   1                  1.00000   -28.43467   
    13. CR (   9)Co   1                  0.99907    -2.44981  99(g),102(g)
    14. CR (   1)Co   2                  1.00000  -277.26556   
    15. CR (   2)Co   2                  1.00000   -31.65414  24(v),29(g),102(g)
    16. CR (   3)Co   2                  0.99875    -5.12611  24(v),29(g),102(g)
    17. CR (   4)Co   2                  1.00000   -28.43093   
    18. CR (   5)Co   2                  0.99988    -2.44661   
    19. CR (   6)Co   2                  1.00000   -28.43093   
    20. CR (   7)Co   2                  0.99988    -2.44661   
    21. CR (   8)Co   2                  1.00000   -28.43467   
    22. CR (   9)Co   2                  0.99907    -2.44981  99(g),102(g)
    23. LP (   1)Co   1                  0.99999    -0.28932   
    24. LP*(   2)Co   1                  0.00079     0.06165   
    25. LP*(   3)Co   1                  0.00007     0.89061   
    26. LP*(   4)Co   1                  0.00005     0.13626   
    27. LP*(   5)Co   1                  0.00005     0.13626   
    28. LP (   1)Co   2                  0.99999    -0.28932   
    29. LP*(   2)Co   2                  0.00079     0.06165   
    30. LP*(   3)Co   2                  0.00007     0.89062   
    31. LP*(   4)Co   2                  0.00005     0.13626   
    32. LP*(   5)Co   2                  0.00005     0.13626   
    33. RY*(   1)Co   1                  0.00000   696.75753   
    34. RY*(   2)Co   1                  0.00000   222.34175   
    35. RY*(   3)Co   1                  0.00000     0.46815   
    36. RY*(   4)Co   1                  0.00000     0.22618   
    37. RY*(   5)Co   1                  0.00000     1.60204   
    38. RY*(   6)Co   1                  0.00000    10.78166   
    39. RY*(   7)Co   1                  0.00000    31.11586   
    40. RY*(   8)Co   1                  0.00000     1.05711   
    41. RY*(   9)Co   1                  0.00000     0.22618   
    42. RY*(  10)Co   1                  0.00000     1.60204   
    43. RY*(  11)Co   1                  0.00000    10.78166   
    44. RY*(  12)Co   1                  0.00000    31.11586   
    45. RY*(  13)Co   1                  0.00000     6.21556   
    46. RY*(  14)Co   1                  0.00000    61.03946   
    47. RY*(  15)Co   1                  0.00001     1.65139   
    48. RY*(  16)Co   1                  0.00000    10.88434   
    49. RY*(  17)Co   1                  0.00000    31.12062   
    50. RY*(  18)Co   1                  0.00000     0.52291   
    51. RY*(  19)Co   1                  0.00000     1.21673   
    52. RY*(  20)Co   1                  0.00000     6.14521   
    53. RY*(  21)Co   1                  0.00000     0.58206   
    54. RY*(  22)Co   1                  0.00000     1.32916   
    55. RY*(  23)Co   1                  0.00000     6.19884   
    56. RY*(  24)Co   1                  0.00000     0.58206   
    57. RY*(  25)Co   1                  0.00000     1.32916   
    58. RY*(  26)Co   1                  0.00000     6.19884   
    59. RY*(  27)Co   1                  0.00000    -0.08530   
    60. RY*(  28)Co   1                  0.00000     0.55816   
    61. RY*(  29)Co   1                  0.00000     1.24011   
    62. RY*(  30)Co   1                  0.00000     6.19451   
    63. RY*(  31)Co   1                  0.00000     0.79466   
    64. RY*(  32)Co   1                  0.00000     1.50706   
    65. RY*(  33)Co   1                  0.00000     6.30495   
    66. RY*(   1)Co   2                  0.00000   696.75704   
    67. RY*(   2)Co   2                  0.00000   222.34228   
    68. RY*(   3)Co   2                  0.00000     0.46815   
    69. RY*(   4)Co   2                  0.00000     0.22618   
    70. RY*(   5)Co   2                  0.00000     1.60204   
    71. RY*(   6)Co   2                  0.00000    10.78166   
    72. RY*(   7)Co   2                  0.00000    31.11586   
    73. RY*(   8)Co   2                  0.00000     1.05710   
    74. RY*(   9)Co   2                  0.00000     0.22618   
    75. RY*(  10)Co   2                  0.00000     1.60204   
    76. RY*(  11)Co   2                  0.00000    10.78166   
    77. RY*(  12)Co   2                  0.00000    31.11586   
    78. RY*(  13)Co   2                  0.00000     6.21551   
    79. RY*(  14)Co   2                  0.00000    61.03947   
    80. RY*(  15)Co   2                  0.00001     1.65139   
    81. RY*(  16)Co   2                  0.00000    10.88434   
    82. RY*(  17)Co   2                  0.00000    31.12062   
    83. RY*(  18)Co   2                  0.00000     0.52291   
    84. RY*(  19)Co   2                  0.00000     1.21673   
    85. RY*(  20)Co   2                  0.00000     6.14521   
    86. RY*(  21)Co   2                  0.00000     0.58206   
    87. RY*(  22)Co   2                  0.00000     1.32916   
    88. RY*(  23)Co   2                  0.00000     6.19884   
    89. RY*(  24)Co   2                  0.00000     0.58206   
    90. RY*(  25)Co   2                  0.00000     1.32916   
    91. RY*(  26)Co   2                  0.00000     6.19884   
    92. RY*(  27)Co   2                  0.00000    -0.08530   
    93. RY*(  28)Co   2                  0.00000     0.55816   
    94. RY*(  29)Co   2                  0.00000     1.24011   
    95. RY*(  30)Co   2                  0.00000     6.19451   
    96. RY*(  31)Co   2                  0.00000     0.79466   
    97. RY*(  32)Co   2                  0.00000     1.50706   
    98. RY*(  33)Co   2                  0.00000     6.30495   
    99. BD*(   1)Co   1 -Co   2          0.00129     0.01484   
   100. BD*(   2)Co   1 -Co   2          0.00013    -0.11601   
   101. BD*(   3)Co   1 -Co   2          0.00013    -0.11601   
   102. BD*(   4)Co   1 -Co   2          0.00131    -0.12353   
       -------------------------------
              Total Lewis   23.99514  ( 99.9797%)
        Valence non-Lewis    0.00478  (  0.0199%)
        Rydberg non-Lewis    0.00008  (  0.0003%)
       -------------------------------
            Total unit  1   24.00000  (100.0000%)
           Charge unit  1    3.00000
 Calling FoFJK, ICntrl=    100127 FMM=F ISym2X=0 I1Cent= 0 IOpClX= 1 NMat=1 NMatS=1 NMatT=0.
 Full mass-weighted force constant matrix:
 Low frequencies ---   -4.3498   -4.3497    0.0033    0.0077    0.0085  347.2473
 Diagonal vibrational polarizability:
        0.0000000       0.0000000       0.0000000
 Harmonic frequencies (cm**-1), IR intensities (KM/Mole), Raman scattering
 activities (A**4/AMU), depolarization ratios for plane and unpolarized
 incident light, reduced masses (AMU), force constants (mDyne/A),
 and normal coordinates:
                     1
                     A
 Frequencies --   347.2473
 Red. masses --    58.9332
 Frc consts  --     4.1869
 IR Inten    --     0.0000
  Atom  AN      X      Y      Z
     1  27     0.00   0.00   0.71
     2  27     0.00   0.00  -0.71

 -------------------
 - Thermochemistry -
 -------------------
 Temperature   298.150 Kelvin.  Pressure   1.00000 Atm.
 Atom     1 has atomic number 27 and mass  58.93320
 Atom     2 has atomic number 27 and mass  58.93320
 Molecular mass:   117.86640 amu.
 Principal axes and moments of inertia in atomic units:
                           1         2         3
     Eigenvalues --     0.00000 458.85559 458.85559
           X            0.00000   0.00000   1.00000
           Y            0.00000   1.00000   0.00000
           Z            1.00000   0.00000   0.00000
 This molecule is a prolate symmetric top.
 Rotational symmetry number  2.
 Warning -- assumption of classical behavior for rotation
           may cause significant error
 Rotational temperature (Kelvin)      0.18876
 Rotational constant (GHZ):           3.933136
 Zero-point vibrational energy       2077.0 (Joules/Mol)
                                    0.49641 (Kcal/Mol)
 Warning -- explicit consideration of   1 degrees of freedom as
           vibrations may cause significant error
 Vibrational temperatures:    499.61
          (Kelvin)
 
 Zero-point correction=                           0.000791 (Hartree/Particle)
 Thermal correction to Energy=                    0.003516
 Thermal correction to Enthalpy=                  0.004460
 Thermal correction to Gibbs Free Energy=        -0.024285
 Sum of electronic and zero-point Energies=          -2765.418615
 Sum of electronic and thermal Energies=             -2765.415890
 Sum of electronic and thermal Enthalpies=           -2765.414946
 Sum of electronic and thermal Free Energies=        -2765.443691
 
                     E (Thermal)             CV                S
                      KCal/Mol        Cal/Mol-Kelvin    Cal/Mol-Kelvin
 Total                    2.206              6.549             60.499
 Electronic               0.000              0.000              3.867
 Translational            0.889              2.981             40.208
 Rotational               0.592              1.987             15.245
 Vibrational              0.725              1.581              1.179
 Vibration     1          0.725              1.581              1.179
                       Q            Log10(Q)             Ln(Q)
 Total Bot       0.148000D+12         11.170261         25.720478
 Total V=0       0.342086D+12         11.534136         26.558329
 Vib (Bot)       0.532267D+00         -0.273870         -0.630610
 Vib (Bot)    1  0.532267D+00         -0.273870         -0.630610
 Vib (V=0)       0.123028D+01          0.090004          0.207241
 Vib (V=0)    1  0.123028D+01          0.090004          0.207241
 Electronic      0.700000D+01          0.845098          1.945910
 Translational   0.502968D+08          7.701540         17.733452
 Rotational      0.789757D+03          2.897494          6.671726
 -------------------------------------------------------------------
 Center     Atomic                   Forces (Hartrees/Bohr)
 Number     Number              X              Y              Z
 -------------------------------------------------------------------
      1       27           0.000000000    0.000000000   -0.000000117
      2       27           0.000000000    0.000000000    0.000000117
 -------------------------------------------------------------------
 Cartesian Forces:  Max     0.000000117 RMS     0.000000068

 GradGradGradGradGradGradGradGradGradGradGradGradGradGradGradGradGradGrad
 Berny optimization.
 Internal  Forces:  Max     0.000000117 RMS     0.000000117
 Search for a local minimum.
 Step number   1 out of a maximum of    2
 All quantities printed in internal units (Hartrees-Bohrs-Radians)
 Second derivative matrix not updated -- analytic derivatives used.
 The second derivative matrix:
                          R1
           R1           0.13446
     Eigenvalues ---    0.13446
 Angle between quadratic step and forces=  90.00 degrees.
 Linear search not attempted -- first point.
 Iteration  1 RMS(Cart)=  0.00000062 RMS(Int)=  0.00000000
 Variable       Old X    -DE/DX   Delta X   Delta X   Delta X     New X
                                 (Linear)    (Quad)   (Total)
    R1        3.94614   0.00000   0.00000   0.00000   0.00000   3.94615
         Item               Value     Threshold  Converged?
 Maximum Force            0.000000     0.000015     YES
 RMS     Force            0.000000     0.000010     YES
 Maximum Displacement     0.000000     0.000060     YES
 RMS     Displacement     0.000001     0.000040     YES
 Predicted change in Energy=-5.098132D-14
 Optimization completed.
    -- Stationary point found.
                           ----------------------------
                           !   Optimized Parameters   !
                           ! (Angstroms and Degrees)  !
 --------------------------                            --------------------------
 ! Name  Definition              Value          Derivative Info.                !
 --------------------------------------------------------------------------------
 ! R1    R(1,2)                  2.0882         -DE/DX =    0.0                 !
 --------------------------------------------------------------------------------
 GradGradGradGradGradGradGradGradGradGradGradGradGradGradGradGradGradGrad

 1|1|UNPC-Z-NASIRI|Freq|UB3LYP|6-311++G|Co2(7)|NASIRI|06-Dec-2020|0||#N
  Geom=AllCheck Guess=TCheck SCRF=Check GenChk UB3LYP/6-311++G Freq||Ti
 tle||0,7|Co,0.,0.,-0.0441049194|Co,0.,0.,2.0441049194||Version=IA32W-G
 09RevA.02|HF=-2765.4194063|S2=12.083764|S2-1=0.|S2A=12.001621|RMSD=4.6
 08e-009|RMSF=6.760e-008|Thermal=0.0035159|Dipole=0.,0.,0.0000017|Dipol
 eDeriv=0.0000001,0.,0.,0.,0.0000001,0.,0.,0.,0.0000011,-0.0000001,0.,0
 .,0.,-0.0000001,0.,0.,0.,-0.0000011|Polar=74.8226695,0.,74.8226695,0.,
 0.,155.1291839|PG=D*H [C*(Co1.Co1)]|NImag=0||-0.00002110,0.,-0.0000211
 0,0.,0.,0.13446189,0.00002110,0.,0.,-0.00002110,0.,0.00002110,0.,0.,-0
 .00002110,0.,0.,-0.13446189,0.,0.,0.13446189||0.,0.,0.00000012,0.,0.,-
 0.00000012|||@


 LEARN FROM YESTERDAY,
 LIVE FOR TODAY,
 LOOK TO TOMORROW,
 REST THIS AFTERNOON.

           -- SNOOPY
 Job cpu time:  0 days  0 hours  1 minutes 29.0 seconds.
 File lengths (MBytes):  RWF=     14 Int=      0 D2E=      0 Chk=      2 Scr=      1
 Normal termination of Gaussian 09 at Sun Dec 06 20:43:36 2020.
